+ 0.1 0 1 cbr 210 ------- 1 0.0 2.0 0 0
- 0.1 0 1 cbr 210 ------- 1 0.0 2.0 0 0
+ 0.10375 0 1 cbr 210 ------- 1 0.0 2.0 1 1
- 0.10375 0 1 cbr 210 ------- 1 0.0 2.0 1 1
+ 0.1075 0 1 cbr 210 ------- 1 0.0 2.0 2 2
- 0.1075 0 1 cbr 210 ------- 1 0.0 2.0 2 2
r 0.110168 0 1 cbr 210 ------- 1 0.0 2.0 0 0
+ 0.110168 1 2 cbr 210 ------- 1 0.0 2.0 0 0
- 0.110168 1 2 cbr 210 ------- 1 0.0 2.0 0 0
+ 0.11125 0 1 cbr 210 ------- 1 0.0 2.0 3 3
- 0.11125 0 1 cbr 210 ------- 1 0.0 2.0 3 3
r 0.113918 0 1 cbr 210 ------- 1 0.0 2.0 1 1
+ 0.113918 1 2 cbr 210 ------- 1 0.0 2.0 1 1
- 0.113918 1 2 cbr 210 ------- 1 0.0 2.0 1 1
+ 0.115 0 1 cbr 210 ------- 1 0.0 2.0 4 4
- 0.115 0 1 cbr 210 ------- 1 0.0 2.0 4 4
r 0.117668 0 1 cbr 210 ------- 1 0.0 2.0 2 2
+ 0.117668 1 2 cbr 210 ------- 1 0.0 2.0 2 2
- 0.117668 1 2 cbr 210 ------- 1 0.0 2.0 2 2
+ 0.11875 0 1 cbr 210 ------- 1 0.0 2.0 5 5
- 0.11875 0 1 cbr 210 ------- 1 0.0 2.0 5 5
r 0.121418 0 1 cbr 210 ------- 1 0.0 2.0 3 3
+ 0.121418 1 2 cbr 210 ------- 1 0.0 2.0 3 3
- 0.121418 1 2 cbr 210 ------- 1 0.0 2.0 3 3
+ 0.1225 0 1 cbr 210 ------- 1 0.0 2.0 6 6
- 0.1225 0 1 cbr 210 ------- 1 0.0 2.0 6 6
r 0.125168 0 1 cbr 210 ------- 1 0.0 2.0 4 4
+ 0.125168 1 2 cbr 210 ------- 1 0.0 2.0 4 4
- 0.125168 1 2 cbr 210 ------- 1 0.0 2.0 4 4
+ 0.12625 0 1 cbr 210 ------- 1 0.0 2.0 7 7
- 0.12625 0 1 cbr 210 ------- 1 0.0 2.0 7 7
r 0.128918 0 1 cbr 210 ------- 1 0.0 2.0 5 5
+ 0.128918 1 2 cbr 210 ------- 1 0.0 2.0 5 5
- 0.128918 1 2 cbr 210 ------- 1 0.0 2.0 5 5
+ 0.13 0 1 cbr 210 ------- 1 0.0 2.0 8 8
- 0.13 0 1 cbr 210 ------- 1 0.0 2.0 8 8
r 0.132668 0 1 cbr 210 ------- 1 0.0 2.0 6 6
+ 0.132668 1 2 cbr 210 ------- 1 0.0 2.0 6 6
- 0.132668 1 2 cbr 210 ------- 1 0.0 2.0 6 6
+ 0.13375 0 1 cbr 210 ------- 1 0.0 2.0 9 9
- 0.13375 0 1 cbr 210 ------- 1 0.0 2.0 9 9
r 0.136418 0 1 cbr 210 ------- 1 0.0 2.0 7 7
+ 0.136418 1 2 cbr 210 ------- 1 0.0 2.0 7 7
- 0.136418 1 2 cbr 210 ------- 1 0.0 2.0 7 7
+ 0.1375 0 1 cbr 210 ------- 1 0.0 2.0 10 10
- 0.1375 0 1 cbr 210 ------- 1 0.0 2.0 10 10
r 0.140168 0 1 cbr 210 ------- 1 0.0 2.0 8 8
+ 0.140168 1 2 cbr 210 ------- 1 0.0 2.0 8 8
- 0.140168 1 2 cbr 210 ------- 1 0.0 2.0 8 8
+ 0.14125 0 1 cbr 210 ------- 1 0.0 2.0 11 11
- 0.14125 0 1 cbr 210 ------- 1 0.0 2.0 11 11
r 0.143918 0 1 cbr 210 ------- 1 0.0 2.0 9 9
+ 0.143918 1 2 cbr 210 ------- 1 0.0 2.0 9 9
- 0.143918 1 2 cbr 210 ------- 1 0.0 2.0 9 9
+ 0.145 0 1 cbr 210 ------- 1 0.0 2.0 12 12
- 0.145 0 1 cbr 210 ------- 1 0.0 2.0 12 12
r 0.147668 0 1 cbr 210 ------- 1 0.0 2.0 10 10
+ 0.147668 1 2 cbr 210 ------- 1 0.0 2.0 10 10
- 0.147668 1 2 cbr 210 ------- 1 0.0 2.0 10 10
+ 0.14875 0 1 cbr 210 ------- 1 0.0 2.0 13 13
- 0.14875 0 1 cbr 210 ------- 1 0.0 2.0 13 13
r 0.151418 0 1 cbr 210 ------- 1 0.0 2.0 11 11
+ 0.151418 1 2 cbr 210 ------- 1 0.0 2.0 11 11
- 0.151418 1 2 cbr 210 ------- 1 0.0 2.0 11 11
+ 0.1525 0 1 cbr 210 ------- 1 0.0 2.0 14 14
- 0.1525 0 1 cbr 210 ------- 1 0.0 2.0 14 14
r 0.155168 0 1 cbr 210 ------- 1 0.0 2.0 12 12
+ 0.155168 1 2 cbr 210 ------- 1 0.0 2.0 12 12
- 0.155168 1 2 cbr 210 ------- 1 0.0 2.0 12 12
+ 0.15625 0 1 cbr 210 ------- 1 0.0 2.0 15 15
- 0.15625 0 1 cbr 210 ------- 1 0.0 2.0 15 15
r 0.158918 0 1 cbr 210 ------- 1 0.0 2.0 13 13
+ 0.158918 1 2 cbr 210 ------- 1 0.0 2.0 13 13
- 0.158918 1 2 cbr 210 ------- 1 0.0 2.0 13 13
+ 0.16 0 1 cbr 210 ------- 1 0.0 2.0 16 16
- 0.16 0 1 cbr 210 ------- 1 0.0 2.0 16 16
r 0.162668 0 1 cbr 210 ------- 1 0.0 2.0 14 14
+ 0.162668 1 2 cbr 210 ------- 1 0.0 2.0 14 14
- 0.162668 1 2 cbr 210 ------- 1 0.0 2.0 14 14
+ 0.16375 0 1 cbr 210 ------- 1 0.0 2.0 17 17
- 0.16375 0 1 cbr 210 ------- 1 0.0 2.0 17 17
r 0.166418 0 1 cbr 210 ------- 1 0.0 2.0 15 15
+ 0.166418 1 2 cbr 210 ------- 1 0.0 2.0 15 15
- 0.166418 1 2 cbr 210 ------- 1 0.0 2.0 15 15
+ 0.1675 0 1 cbr 210 ------- 1 0.0 2.0 18 18
- 0.1675 0 1 cbr 210 ------- 1 0.0 2.0 18 18
r 0.170168 0 1 cbr 210 ------- 1 0.0 2.0 16 16
+ 0.170168 1 2 cbr 210 ------- 1 0.0 2.0 16 16
- 0.170168 1 2 cbr 210 ------- 1 0.0 2.0 16 16
+ 0.17125 0 1 cbr 210 ------- 1 0.0 2.0 19 19
- 0.17125 0 1 cbr 210 ------- 1 0.0 2.0 19 19
r 0.173918 0 1 cbr 210 ------- 1 0.0 2.0 17 17
+ 0.173918 1 2 cbr 210 ------- 1 0.0 2.0 17 17
- 0.173918 1 2 cbr 210 ------- 1 0.0 2.0 17 17
+ 0.175 0 1 cbr 210 ------- 1 0.0 2.0 20 20
- 0.175 0 1 cbr 210 ------- 1 0.0 2.0 20 20
r 0.177668 0 1 cbr 210 ------- 1 0.0 2.0 18 18
+ 0.177668 1 2 cbr 210 ------- 1 0.0 2.0 18 18
- 0.177668 1 2 cbr 210 ------- 1 0.0 2.0 18 18
+ 0.17875 0 1 cbr 210 ------- 1 0.0 2.0 21 21
- 0.17875 0 1 cbr 210 ------- 1 0.0 2.0 21 21
r 0.181418 0 1 cbr 210 ------- 1 0.0 2.0 19 19
+ 0.181418 1 2 cbr 210 ------- 1 0.0 2.0 19 19
- 0.181418 1 2 cbr 210 ------- 1 0.0 2.0 19 19
+ 0.1825 0 1 cbr 210 ------- 1 0.0 2.0 22 22
- 0.1825 0 1 cbr 210 ------- 1 0.0 2.0 22 22
r 0.185168 0 1 cbr 210 ------- 1 0.0 2.0 20 20
+ 0.185168 1 2 cbr 210 ------- 1 0.0 2.0 20 20
- 0.185168 1 2 cbr 210 ------- 1 0.0 2.0 20 20
+ 0.18625 0 1 cbr 210 ------- 1 0.0 2.0 23 23
- 0.18625 0 1 cbr 210 ------- 1 0.0 2.0 23 23
r 0.188918 0 1 cbr 210 ------- 1 0.0 2.0 21 21
+ 0.188918 1 2 cbr 210 ------- 1 0.0 2.0 21 21
- 0.188918 1 2 cbr 210 ------- 1 0.0 2.0 21 21
+ 0.19 0 1 cbr 210 ------- 1 0.0 2.0 24 24
- 0.19 0 1 cbr 210 ------- 1 0.0 2.0 24 24
r 0.192668 0 1 cbr 210 ------- 1 0.0 2.0 22 22
+ 0.192668 1 2 cbr 210 ------- 1 0.0 2.0 22 22
- 0.192668 1 2 cbr 210 ------- 1 0.0 2.0 22 22
+ 0.19375 0 1 cbr 210 ------- 1 0.0 2.0 25 25
- 0.19375 0 1 cbr 210 ------- 1 0.0 2.0 25 25
r 0.196418 0 1 cbr 210 ------- 1 0.0 2.0 23 23
+ 0.196418 1 2 cbr 210 ------- 1 0.0 2.0 23 23
- 0.196418 1 2 cbr 210 ------- 1 0.0 2.0 23 23
+ 0.1975 0 1 cbr 210 ------- 1 0.0 2.0 26 26
- 0.1975 0 1 cbr 210 ------- 1 0.0 2.0 26 26
r 0.200168 0 1 cbr 210 ------- 1 0.0 2.0 24 24
+ 0.200168 1 2 cbr 210 ------- 1 0.0 2.0 24 24
- 0.200168 1 2 cbr 210 ------- 1 0.0 2.0 24 24
+ 0.20125 0 1 cbr 210 ------- 1 0.0 2.0 27 27
- 0.20125 0 1 cbr 210 ------- 1 0.0 2.0 27 27
r 0.203918 0 1 cbr 210 ------- 1 0.0 2.0 25 25
+ 0.203918 1 2 cbr 210 ------- 1 0.0 2.0 25 25
- 0.203918 1 2 cbr 210 ------- 1 0.0 2.0 25 25
+ 0.205 0 1 cbr 210 ------- 1 0.0 2.0 28 28
- 0.205 0 1 cbr 210 ------- 1 0.0 2.0 28 28
r 0.207668 0 1 cbr 210 ------- 1 0.0 2.0 26 26
+ 0.207668 1 2 cbr 210 ------- 1 0.0 2.0 26 26
- 0.207668 1 2 cbr 210 ------- 1 0.0 2.0 26 26
+ 0.20875 0 1 cbr 210 ------- 1 0.0 2.0 29 29
- 0.20875 0 1 cbr 210 ------- 1 0.0 2.0 29 29
r 0.211418 0 1 cbr 210 ------- 1 0.0 2.0 27 27
+ 0.211418 1 2 cbr 210 ------- 1 0.0 2.0 27 27
- 0.211418 1 2 cbr 210 ------- 1 0.0 2.0 27 27
r 0.212268 1 2 cbr 210 ------- 1 0.0 2.0 0 0
+ 0.2125 0 1 cbr 210 ------- 1 0.0 2.0 30 30
- 0.2125 0 1 cbr 210 ------- 1 0.0 2.0 30 30
r 0.215168 0 1 cbr 210 ------- 1 0.0 2.0 28 28
+ 0.215168 1 2 cbr 210 ------- 1 0.0 2.0 28 28
- 0.215168 1 2 cbr 210 ------- 1 0.0 2.0 28 28
r 0.216018 1 2 cbr 210 ------- 1 0.0 2.0 1 1
+ 0.21625 0 1 cbr 210 ------- 1 0.0 2.0 31 31
- 0.21625 0 1 cbr 210 ------- 1 0.0 2.0 31 31
r 0.218918 0 1 cbr 210 ------- 1 0.0 2.0 29 29
+ 0.218918 1 2 cbr 210 ------- 1 0.0 2.0 29 29
- 0.218918 1 2 cbr 210 ------- 1 0.0 2.0 29 29
r 0.219768 1 2 cbr 210 ------- 1 0.0 2.0 2 2
+ 0.22 0 1 cbr 210 ------- 1 0.0 2.0 32 32
- 0.22 0 1 cbr 210 ------- 1 0.0 2.0 32 32
r 0.222668 0 1 cbr 210 ------- 1 0.0 2.0 30 30
+ 0.222668 1 2 cbr 210 ------- 1 0.0 2.0 30 30
- 0.222668 1 2 cbr 210 ------- 1 0.0 2.0 30 30
r 0.223518 1 2 cbr 210 ------- 1 0.0 2.0 3 3
+ 0.22375 0 1 cbr 210 ------- 1 0.0 2.0 33 33
- 0.22375 0 1 cbr 210 ------- 1 0.0 2.0 33 33
r 0.226418 0 1 cbr 210 ------- 1 0.0 2.0 31 31
+ 0.226418 1 2 cbr 210 ------- 1 0.0 2.0 31 31
- 0.226418 1 2 cbr 210 ------- 1 0.0 2.0 31 31
r 0.227268 1 2 cbr 210 ------- 1 0.0 2.0 4 4
+ 0.2275 0 1 cbr 210 ------- 1 0.0 2.0 34 34
- 0.2275 0 1 cbr 210 ------- 1 0.0 2.0 34 34
r 0.230168 0 1 cbr 210 ------- 1 0.0 2.0 32 32
+ 0.230168 1 2 cbr 210 ------- 1 0.0 2.0 32 32
- 0.230168 1 2 cbr 210 ------- 1 0.0 2.0 32 32
r 0.231018 1 2 cbr 210 ------- 1 0.0 2.0 5 5
+ 0.23125 0 1 cbr 210 ------- 1 0.0 2.0 35 35
- 0.23125 0 1 cbr 210 ------- 1 0.0 2.0 35 35
r 0.233918 0 1 cbr 210 ------- 1 0.0 2.0 33 33
+ 0.233918 1 2 cbr 210 ------- 1 0.0 2.0 33 33
- 0.233918 1 2 cbr 210 ------- 1 0.0 2.0 33 33
r 0.234768 1 2 cbr 210 ------- 1 0.0 2.0 6 6
+ 0.235 0 1 cbr 210 ------- 1 0.0 2.0 36 36
- 0.235 0 1 cbr 210 ------- 1 0.0 2.0 36 36
r 0.237668 0 1 cbr 210 ------- 1 0.0 2.0 34 34
+ 0.237668 1 2 cbr 210 ------- 1 0.0 2.0 34 34
- 0.237668 1 2 cbr 210 ------- 1 0.0 2.0 34 34
r 0.238518 1 2 cbr 210 ------- 1 0.0 2.0 7 7
+ 0.23875 0 1 cbr 210 ------- 1 0.0 2.0 37 37
- 0.23875 0 1 cbr 210 ------- 1 0.0 2.0 37 37
r 0.241418 0 1 cbr 210 ------- 1 0.0 2.0 35 35
+ 0.241418 1 2 cbr 210 ------- 1 0.0 2.0 35 35
- 0.241418 1 2 cbr 210 ------- 1 0.0 2.0 35 35
r 0.242268 1 2 cbr 210 ------- 1 0.0 2.0 8 8
+ 0.2425 0 1 cbr 210 ------- 1 0.0 2.0 38 38
- 0.2425 0 1 cbr 210 ------- 1 0.0 2.0 38 38
r 0.245168 0 1 cbr 210 ------- 1 0.0 2.0 36 36
+ 0.245168 1 2 cbr 210 ------- 1 0.0 2.0 36 36
- 0.245168 1 2 cbr 210 ------- 1 0.0 2.0 36 36
r 0.246018 1 2 cbr 210 ------- 1 0.0 2.0 9 9
+ 0.24625 0 1 cbr 210 ------- 1 0.0 2.0 39 39
- 0.24625 0 1 cbr 210 ------- 1 0.0 2.0 39 39
r 0.248918 0 1 cbr 210 ------- 1 0.0 2.0 37 37
+ 0.248918 1 2 cbr 210 ------- 1 0.0 2.0 37 37
- 0.248918 1 2 cbr 210 ------- 1 0.0 2.0 37 37
r 0.249768 1 2 cbr 210 ------- 1 0.0 2.0 10 10
+ 0.25 0 1 cbr 210 ------- 1 0.0 2.0 40 40
- 0.25 0 1 cbr 210 ------- 1 0.0 2.0 40 40
r 0.252668 0 1 cbr 210 ------- 1 0.0 2.0 38 38
+ 0.252668 1 2 cbr 210 ------- 1 0.0 2.0 38 38
- 0.252668 1 2 cbr 210 ------- 1 0.0 2.0 38 38
r 0.253518 1 2 cbr 210 ------- 1 0.0 2.0 11 11
+ 0.25375 0 1 cbr 210 ------- 1 0.0 2.0 41 41
- 0.25375 0 1 cbr 210 ------- 1 0.0 2.0 41 41
r 0.256418 0 1 cbr 210 ------- 1 0.0 2.0 39 39
+ 0.256418 1 2 cbr 210 ------- 1 0.0 2.0 39 39
- 0.256418 1 2 cbr 210 ------- 1 0.0 2.0 39 39
r 0.257268 1 2 cbr 210 ------- 1 0.0 2.0 12 12
+ 0.2575 0 1 cbr 210 ------- 1 0.0 2.0 42 42
- 0.2575 0 1 cbr 210 ------- 1 0.0 2.0 42 42
r 0.260168 0 1 cbr 210 ------- 1 0.0 2.0 40 40
+ 0.260168 1 2 cbr 210 ------- 1 0.0 2.0 40 40
- 0.260168 1 2 cbr 210 ------- 1 0.0 2.0 40 40
r 0.261018 1 2 cbr 210 ------- 1 0.0 2.0 13 13
+ 0.26125 0 1 cbr 210 ------- 1 0.0 2.0 43 43
- 0.26125 0 1 cbr 210 ------- 1 0.0 2.0 43 43
r 0.263918 0 1 cbr 210 ------- 1 0.0 2.0 41 41
+ 0.263918 1 2 cbr 210 ------- 1 0.0 2.0 41 41
- 0.263918 1 2 cbr 210 ------- 1 0.0 2.0 41 41
r 0.264768 1 2 cbr 210 ------- 1 0.0 2.0 14 14
+ 0.265 0 1 cbr 210 ------- 1 0.0 2.0 44 44
- 0.265 0 1 cbr 210 ------- 1 0.0 2.0 44 44
r 0.267668 0 1 cbr 210 ------- 1 0.0 2.0 42 42
+ 0.267668 1 2 cbr 210 ------- 1 0.0 2.0 42 42
- 0.267668 1 2 cbr 210 ------- 1 0.0 2.0 42 42
r 0.268518 1 2 cbr 210 ------- 1 0.0 2.0 15 15
+ 0.26875 0 1 cbr 210 ------- 1 0.0 2.0 45 45
- 0.26875 0 1 cbr 210 ------- 1 0.0 2.0 45 45
r 0.271418 0 1 cbr 210 ------- 1 0.0 2.0 43 43
+ 0.271418 1 2 cbr 210 ------- 1 0.0 2.0 43 43
- 0.271418 1 2 cbr 210 ------- 1 0.0 2.0 43 43
r 0.272268 1 2 cbr 210 ------- 1 0.0 2.0 16 16
+ 0.2725 0 1 cbr 210 ------- 1 0.0 2.0 46 46
- 0.2725 0 1 cbr 210 ------- 1 0.0 2.0 46 46
r 0.275168 0 1 cbr 210 ------- 1 0.0 2.0 44 44
+ 0.275168 1 2 cbr 210 ------- 1 0.0 2.0 44 44
- 0.275168 1 2 cbr 210 ------- 1 0.0 2.0 44 44
r 0.276018 1 2 cbr 210 ------- 1 0.0 2.0 17 17
+ 0.27625 0 1 cbr 210 ------- 1 0.0 2.0 47 47
- 0.27625 0 1 cbr 210 ------- 1 0.0 2.0 47 47
r 0.278918 0 1 cbr 210 ------- 1 0.0 2.0 45 45
+ 0.278918 1 2 cbr 210 ------- 1 0.0 2.0 45 45
- 0.278918 1 2 cbr 210 ------- 1 0.0 2.0 45 45
r 0.279768 1 2 cbr 210 ------- 1 0.0 2.0 18 18
+ 0.28 0 1 cbr 210 ------- 1 0.0 2.0 48 48
- 0.28 0 1 cbr 210 ------- 1 0.0 2.0 48 48
r 0.282668 0 1 cbr 210 ------- 1 0.0 2.0 46 46
+ 0.282668 1 2 cbr 210 ------- 1 0.0 2.0 46 46
- 0.282668 1 2 cbr 210 ------- 1 0.0 2.0 46 46
r 0.283518 1 2 cbr 210 ------- 1 0.0 2.0 19 19
+ 0.28375 0 1 cbr 210 ------- 1 0.0 2.0 49 49
- 0.28375 0 1 cbr 210 ------- 1 0.0 2.0 49 49
r 0.286418 0 1 cbr 210 ------- 1 0.0 2.0 47 47
+ 0.286418 1 2 cbr 210 ------- 1 0.0 2.0 47 47
- 0.286418 1 2 cbr 210 ------- 1 0.0 2.0 47 47
r 0.287268 1 2 cbr 210 ------- 1 0.0 2.0 20 20
+ 0.2875 0 1 cbr 210 ------- 1 0.0 2.0 50 50
- 0.2875 0 1 cbr 210 ------- 1 0.0 2.0 50 50
r 0.290168 0 1 cbr 210 ------- 1 0.0 2.0 48 48
+ 0.290168 1 2 cbr 210 ------- 1 0.0 2.0 48 48
- 0.290168 1 2 cbr 210 ------- 1 0.0 2.0 48 48
r 0.291018 1 2 cbr 210 ------- 1 0.0 2.0 21 21
+ 0.29125 0 1 cbr 210 ------- 1 0.0 2.0 51 51
- 0.29125 0 1 cbr 210 ------- 1 0.0 2.0 51 51
r 0.293918 0 1 cbr 210 ------- 1 0.0 2.0 49 49
+ 0.293918 1 2 cbr 210 ------- 1 0.0 2.0 49 49
- 0.293918 1 2 cbr 210 ------- 1 0.0 2.0 49 49
r 0.294768 1 2 cbr 210 ------- 1 0.0 2.0 22 22
+ 0.295 0 1 cbr 210 ------- 1 0.0 2.0 52 52
- 0.295 0 1 cbr 210 ------- 1 0.0 2.0 52 52
r 0.297668 0 1 cbr 210 ------- 1 0.0 2.0 50 50
+ 0.297668 1 2 cbr 210 ------- 1 0.0 2.0 50 50
- 0.297668 1 2 cbr 210 ------- 1 0.0 2.0 50 50
r 0.298518 1 2 cbr 210 ------- 1 0.0 2.0 23 23
+ 0.29875 0 1 cbr 210 ------- 1 0.0 2.0 53 53
- 0.29875 0 1 cbr 210 ------- 1 0.0 2.0 53 53
r 0.301418 0 1 cbr 210 ------- 1 0.0 2.0 51 51
+ 0.301418 1 2 cbr 210 ------- 1 0.0 2.0 51 51
- 0.301418 1 2 cbr 210 ------- 1 0.0 2.0 51 51
r 0.302268 1 2 cbr 210 ------- 1 0.0 2.0 24 24
+ 0.3025 0 1 cbr 210 ------- 1 0.0 2.0 54 54
- 0.3025 0 1 cbr 210 ------- 1 0.0 2.0 54 54
r 0.305168 0 1 cbr 210 ------- 1 0.0 2.0 52 52
+ 0.305168 1 2 cbr 210 ------- 1 0.0 2.0 52 52
- 0.305168 1 2 cbr 210 ------- 1 0.0 2.0 52 52
r 0.306018 1 2 cbr 210 ------- 1 0.0 2.0 25 25
+ 0.30625 0 1 cbr 210 ------- 1 0.0 2.0 55 55
- 0.30625 0 1 cbr 210 ------- 1 0.0 2.0 55 55
r 0.308918 0 1 cbr 210 ------- 1 0.0 2.0 53 53
+ 0.308918 1 2 cbr 210 ------- 1 0.0 2.0 53 53
- 0.308918 1 2 cbr 210 ------- 1 0.0 2.0 53 53
r 0.309768 1 2 cbr 210 ------- 1 0.0 2.0 26 26
+ 0.31 0 1 cbr 210 ------- 1 0.0 2.0 56 56
- 0.31 0 1 cbr 210 ------- 1 0.0 2.0 56 56
r 0.312668 0 1 cbr 210 ------- 1 0.0 2.0 54 54
+ 0.312668 1 2 cbr 210 ------- 1 0.0 2.0 54 54
- 0.312668 1 2 cbr 210 ------- 1 0.0 2.0 54 54
r 0.313518 1 2 cbr 210 ------- 1 0.0 2.0 27 27
+ 0.31375 0 1 cbr 210 ------- 1 0.0 2.0 57 57
- 0.31375 0 1 cbr 210 ------- 1 0.0 2.0 57 57
r 0.316418 0 1 cbr 210 ------- 1 0.0 2.0 55 55
+ 0.316418 1 2 cbr 210 ------- 1 0.0 2.0 55 55
- 0.316418 1 2 cbr 210 ------- 1 0.0 2.0 55 55
r 0.317268 1 2 cbr 210 ------- 1 0.0 2.0 28 28
+ 0.3175 0 1 cbr 210 ------- 1 0.0 2.0 58 58
- 0.3175 0 1 cbr 210 ------- 1 0.0 2.0 58 58
r 0.320168 0 1 cbr 210 ------- 1 0.0 2.0 56 56
+ 0.320168 1 2 cbr 210 ------- 1 0.0 2.0 56 56
- 0.320168 1 2 cbr 210 ------- 1 0.0 2.0 56 56
r 0.321018 1 2 cbr 210 ------- 1 0.0 2.0 29 29
+ 0.32125 0 1 cbr 210 ------- 1 0.0 2.0 59 59
- 0.32125 0 1 cbr 210 ------- 1 0.0 2.0 59 59
r 0.323918 0 1 cbr 210 ------- 1 0.0 2.0 57 57
+ 0.323918 1 2 cbr 210 ------- 1 0.0 2.0 57 57
- 0.323918 1 2 cbr 210 ------- 1 0.0 2.0 57 57
r 0.324768 1 2 cbr 210 ------- 1 0.0 2.0 30 30
+ 0.325 0 1 cbr 210 ------- 1 0.0 2.0 60 60
- 0.325 0 1 cbr 210 ------- 1 0.0 2.0 60 60
r 0.327668 0 1 cbr 210 ------- 1 0.0 2.0 58 58
+ 0.327668 1 2 cbr 210 ------- 1 0.0 2.0 58 58
- 0.327668 1 2 cbr 210 ------- 1 0.0 2.0 58 58
r 0.328518 1 2 cbr 210 ------- 1 0.0 2.0 31 31
+ 0.32875 0 1 cbr 210 ------- 1 0.0 2.0 61 61
- 0.32875 0 1 cbr 210 ------- 1 0.0 2.0 61 61
r 0.331418 0 1 cbr 210 ------- 1 0.0 2.0 59 59
+ 0.331418 1 2 cbr 210 ------- 1 0.0 2.0 59 59
- 0.331418 1 2 cbr 210 ------- 1 0.0 2.0 59 59
r 0.332268 1 2 cbr 210 ------- 1 0.0 2.0 32 32
+ 0.3325 0 1 cbr 210 ------- 1 0.0 2.0 62 62
- 0.3325 0 1 cbr 210 ------- 1 0.0 2.0 62 62
r 0.335168 0 1 cbr 210 ------- 1 0.0 2.0 60 60
+ 0.335168 1 2 cbr 210 ------- 1 0.0 2.0 60 60
- 0.335168 1 2 cbr 210 ------- 1 0.0 2.0 60 60
r 0.336018 1 2 cbr 210 ------- 1 0.0 2.0 33 33
+ 0.33625 0 1 cbr 210 ------- 1 0.0 2.0 63 63
- 0.33625 0 1 cbr 210 ------- 1 0.0 2.0 63 63
r 0.338918 0 1 cbr 210 ------- 1 0.0 2.0 61 61
+ 0.338918 1 2 cbr 210 ------- 1 0.0 2.0 61 61
- 0.338918 1 2 cbr 210 ------- 1 0.0 2.0 61 61
r 0.339768 1 2 cbr 210 ------- 1 0.0 2.0 34 34
+ 0.34 0 1 cbr 210 ------- 1 0.0 2.0 64 64
- 0.34 0 1 cbr 210 ------- 1 0.0 2.0 64 64
r 0.342668 0 1 cbr 210 ------- 1 0.0 2.0 62 62
+ 0.342668 1 2 cbr 210 ------- 1 0.0 2.0 62 62
- 0.342668 1 2 cbr 210 ------- 1 0.0 2.0 62 62
r 0.343518 1 2 cbr 210 ------- 1 0.0 2.0 35 35
+ 0.34375 0 1 cbr 210 ------- 1 0.0 2.0 65 65
- 0.34375 0 1 cbr 210 ------- 1 0.0 2.0 65 65
r 0.346418 0 1 cbr 210 ------- 1 0.0 2.0 63 63
+ 0.346418 1 2 cbr 210 ------- 1 0.0 2.0 63 63
- 0.346418 1 2 cbr 210 ------- 1 0.0 2.0 63 63
r 0.347268 1 2 cbr 210 ------- 1 0.0 2.0 36 36
+ 0.3475 0 1 cbr 210 ------- 1 0.0 2.0 66 66
- 0.3475 0 1 cbr 210 ------- 1 0.0 2.0 66 66
r 0.350168 0 1 cbr 210 ------- 1 0.0 2.0 64 64
+ 0.350168 1 2 cbr 210 ------- 1 0.0 2.0 64 64
- 0.350168 1 2 cbr 210 ------- 1 0.0 2.0 64 64
r 0.351018 1 2 cbr 210 ------- 1 0.0 2.0 37 37
+ 0.35125 0 1 cbr 210 ------- 1 0.0 2.0 67 67
- 0.35125 0 1 cbr 210 ------- 1 0.0 2.0 67 67
r 0.353918 0 1 cbr 210 ------- 1 0.0 2.0 65 65
+ 0.353918 1 2 cbr 210 ------- 1 0.0 2.0 65 65
- 0.353918 1 2 cbr 210 ------- 1 0.0 2.0 65 65
r 0.354768 1 2 cbr 210 ------- 1 0.0 2.0 38 38
+ 0.355 0 1 cbr 210 ------- 1 0.0 2.0 68 68
- 0.355 0 1 cbr 210 ------- 1 0.0 2.0 68 68
r 0.357668 0 1 cbr 210 ------- 1 0.0 2.0 66 66
+ 0.357668 1 2 cbr 210 ------- 1 0.0 2.0 66 66
- 0.357668 1 2 cbr 210 ------- 1 0.0 2.0 66 66
r 0.358518 1 2 cbr 210 ------- 1 0.0 2.0 39 39
+ 0.35875 0 1 cbr 210 ------- 1 0.0 2.0 69 69
- 0.35875 0 1 cbr 210 ------- 1 0.0 2.0 69 69
r 0.361418 0 1 cbr 210 ------- 1 0.0 2.0 67 67
+ 0.361418 1 2 cbr 210 ------- 1 0.0 2.0 67 67
- 0.361418 1 2 cbr 210 ------- 1 0.0 2.0 67 67
r 0.362268 1 2 cbr 210 ------- 1 0.0 2.0 40 40
+ 0.3625 0 1 cbr 210 ------- 1 0.0 2.0 70 70
- 0.3625 0 1 cbr 210 ------- 1 0.0 2.0 70 70
r 0.365168 0 1 cbr 210 ------- 1 0.0 2.0 68 68
+ 0.365168 1 2 cbr 210 ------- 1 0.0 2.0 68 68
- 0.365168 1 2 cbr 210 ------- 1 0.0 2.0 68 68
r 0.366018 1 2 cbr 210 ------- 1 0.0 2.0 41 41
+ 0.36625 0 1 cbr 210 ------- 1 0.0 2.0 71 71
- 0.36625 0 1 cbr 210 ------- 1 0.0 2.0 71 71
r 0.368918 0 1 cbr 210 ------- 1 0.0 2.0 69 69
+ 0.368918 1 2 cbr 210 ------- 1 0.0 2.0 69 69
- 0.368918 1 2 cbr 210 ------- 1 0.0 2.0 69 69
r 0.369768 1 2 cbr 210 ------- 1 0.0 2.0 42 42
+ 0.37 0 1 cbr 210 ------- 1 0.0 2.0 72 72
- 0.37 0 1 cbr 210 ------- 1 0.0 2.0 72 72
r 0.372668 0 1 cbr 210 ------- 1 0.0 2.0 70 70
+ 0.372668 1 2 cbr 210 ------- 1 0.0 2.0 70 70
- 0.372668 1 2 cbr 210 ------- 1 0.0 2.0 70 70
r 0.373518 1 2 cbr 210 ------- 1 0.0 2.0 43 43
+ 0.37375 0 1 cbr 210 ------- 1 0.0 2.0 73 73
- 0.37375 0 1 cbr 210 ------- 1 0.0 2.0 73 73
r 0.376418 0 1 cbr 210 ------- 1 0.0 2.0 71 71
+ 0.376418 1 2 cbr 210 ------- 1 0.0 2.0 71 71
- 0.376418 1 2 cbr 210 ------- 1 0.0 2.0 71 71
r 0.377268 1 2 cbr 210 ------- 1 0.0 2.0 44 44
+ 0.3775 0 1 cbr 210 ------- 1 0.0 2.0 74 74
- 0.3775 0 1 cbr 210 ------- 1 0.0 2.0 74 74
r 0.380168 0 1 cbr 210 ------- 1 0.0 2.0 72 72
+ 0.380168 1 2 cbr 210 ------- 1 0.0 2.0 72 72
- 0.380168 1 2 cbr 210 ------- 1 0.0 2.0 72 72
r 0.381018 1 2 cbr 210 ------- 1 0.0 2.0 45 45
+ 0.38125 0 1 cbr 210 ------- 1 0.0 2.0 75 75
- 0.38125 0 1 cbr 210 ------- 1 0.0 2.0 75 75
r 0.383918 0 1 cbr 210 ------- 1 0.0 2.0 73 73
+ 0.383918 1 2 cbr 210 ------- 1 0.0 2.0 73 73
- 0.383918 1 2 cbr 210 ------- 1 0.0 2.0 73 73
r 0.384768 1 2 cbr 210 ------- 1 0.0 2.0 46 46
+ 0.385 0 1 cbr 210 ------- 1 0.0 2.0 76 76
- 0.385 0 1 cbr 210 ------- 1 0.0 2.0 76 76
r 0.387668 0 1 cbr 210 ------- 1 0.0 2.0 74 74
+ 0.387668 1 2 cbr 210 ------- 1 0.0 2.0 74 74
- 0.387668 1 2 cbr 210 ------- 1 0.0 2.0 74 74
r 0.388518 1 2 cbr 210 ------- 1 0.0 2.0 47 47
+ 0.38875 0 1 cbr 210 ------- 1 0.0 2.0 77 77
- 0.38875 0 1 cbr 210 ------- 1 0.0 2.0 77 77
r 0.391418 0 1 cbr 210 ------- 1 0.0 2.0 75 75
+ 0.391418 1 2 cbr 210 ------- 1 0.0 2.0 75 75
- 0.391418 1 2 cbr 210 ------- 1 0.0 2.0 75 75
r 0.392268 1 2 cbr 210 ------- 1 0.0 2.0 48 48
+ 0.3925 0 1 cbr 210 ------- 1 0.0 2.0 78 78
- 0.3925 0 1 cbr 210 ------- 1 0.0 2.0 78 78
r 0.395168 0 1 cbr 210 ------- 1 0.0 2.0 76 76
+ 0.395168 1 2 cbr 210 ------- 1 0.0 2.0 76 76
- 0.395168 1 2 cbr 210 ------- 1 0.0 2.0 76 76
r 0.396018 1 2 cbr 210 ------- 1 0.0 2.0 49 49
+ 0.39625 0 1 cbr 210 ------- 1 0.0 2.0 79 79
- 0.39625 0 1 cbr 210 ------- 1 0.0 2.0 79 79
r 0.398918 0 1 cbr 210 ------- 1 0.0 2.0 77 77
+ 0.398918 1 2 cbr 210 ------- 1 0.0 2.0 77 77
- 0.398918 1 2 cbr 210 ------- 1 0.0 2.0 77 77
r 0.399768 1 2 cbr 210 ------- 1 0.0 2.0 50 50
+ 0.4 0 1 cbr 210 ------- 1 0.0 2.0 80 80
- 0.4 0 1 cbr 210 ------- 1 0.0 2.0 80 80
r 0.402668 0 1 cbr 210 ------- 1 0.0 2.0 78 78
+ 0.402668 1 2 cbr 210 ------- 1 0.0 2.0 78 78
- 0.402668 1 2 cbr 210 ------- 1 0.0 2.0 78 78
r 0.403518 1 2 cbr 210 ------- 1 0.0 2.0 51 51
+ 0.40375 0 1 cbr 210 ------- 1 0.0 2.0 81 81
- 0.40375 0 1 cbr 210 ------- 1 0.0 2.0 81 81
r 0.406418 0 1 cbr 210 ------- 1 0.0 2.0 79 79
+ 0.406418 1 2 cbr 210 ------- 1 0.0 2.0 79 79
- 0.406418 1 2 cbr 210 ------- 1 0.0 2.0 79 79
r 0.407268 1 2 cbr 210 ------- 1 0.0 2.0 52 52
+ 0.4075 0 1 cbr 210 ------- 1 0.0 2.0 82 82
- 0.4075 0 1 cbr 210 ------- 1 0.0 2.0 82 82
r 0.410168 0 1 cbr 210 ------- 1 0.0 2.0 80 80
+ 0.410168 1 2 cbr 210 ------- 1 0.0 2.0 80 80
- 0.410168 1 2 cbr 210 ------- 1 0.0 2.0 80 80
r 0.411018 1 2 cbr 210 ------- 1 0.0 2.0 53 53
+ 0.41125 0 1 cbr 210 ------- 1 0.0 2.0 83 83
- 0.41125 0 1 cbr 210 ------- 1 0.0 2.0 83 83
r 0.413918 0 1 cbr 210 ------- 1 0.0 2.0 81 81
+ 0.413918 1 2 cbr 210 ------- 1 0.0 2.0 81 81
- 0.413918 1 2 cbr 210 ------- 1 0.0 2.0 81 81
r 0.414768 1 2 cbr 210 ------- 1 0.0 2.0 54 54
+ 0.415 0 1 cbr 210 ------- 1 0.0 2.0 84 84
- 0.415 0 1 cbr 210 ------- 1 0.0 2.0 84 84
r 0.417668 0 1 cbr 210 ------- 1 0.0 2.0 82 82
+ 0.417668 1 2 cbr 210 ------- 1 0.0 2.0 82 82
- 0.417668 1 2 cbr 210 ------- 1 0.0 2.0 82 82
r 0.418518 1 2 cbr 210 ------- 1 0.0 2.0 55 55
+ 0.41875 0 1 cbr 210 ------- 1 0.0 2.0 85 85
- 0.41875 0 1 cbr 210 ------- 1 0.0 2.0 85 85
r 0.421418 0 1 cbr 210 ------- 1 0.0 2.0 83 83
+ 0.421418 1 2 cbr 210 ------- 1 0.0 2.0 83 83
- 0.421418 1 2 cbr 210 ------- 1 0.0 2.0 83 83
r 0.422268 1 2 cbr 210 ------- 1 0.0 2.0 56 56
+ 0.4225 0 1 cbr 210 ------- 1 0.0 2.0 86 86
- 0.4225 0 1 cbr 210 ------- 1 0.0 2.0 86 86
r 0.425168 0 1 cbr 210 ------- 1 0.0 2.0 84 84
+ 0.425168 1 2 cbr 210 ------- 1 0.0 2.0 84 84
- 0.425168 1 2 cbr 210 ------- 1 0.0 2.0 84 84
r 0.426018 1 2 cbr 210 ------- 1 0.0 2.0 57 57
+ 0.42625 0 1 cbr 210 ------- 1 0.0 2.0 87 87
- 0.42625 0 1 cbr 210 ------- 1 0.0 2.0 87 87
r 0.428918 0 1 cbr 210 ------- 1 0.0 2.0 85 85
+ 0.428918 1 2 cbr 210 ------- 1 0.0 2.0 85 85
- 0.428918 1 2 cbr 210 ------- 1 0.0 2.0 85 85
r 0.429768 1 2 cbr 210 ------- 1 0.0 2.0 58 58
+ 0.43 0 1 cbr 210 ------- 1 0.0 2.0 88 88
- 0.43 0 1 cbr 210 ------- 1 0.0 2.0 88 88
r 0.432668 0 1 cbr 210 ------- 1 0.0 2.0 86 86
+ 0.432668 1 2 cbr 210 ------- 1 0.0 2.0 86 86
- 0.432668 1 2 cbr 210 ------- 1 0.0 2.0 86 86
r 0.433518 1 2 cbr 210 ------- 1 0.0 2.0 59 59
+ 0.43375 0 1 cbr 210 ------- 1 0.0 2.0 89 89
- 0.43375 0 1 cbr 210 ------- 1 0.0 2.0 89 89
r 0.436418 0 1 cbr 210 ------- 1 0.0 2.0 87 87
+ 0.436418 1 2 cbr 210 ------- 1 0.0 2.0 87 87
- 0.436418 1 2 cbr 210 ------- 1 0.0 2.0 87 87
r 0.437268 1 2 cbr 210 ------- 1 0.0 2.0 60 60
+ 0.4375 0 1 cbr 210 ------- 1 0.0 2.0 90 90
- 0.4375 0 1 cbr 210 ------- 1 0.0 2.0 90 90
r 0.440168 0 1 cbr 210 ------- 1 0.0 2.0 88 88
+ 0.440168 1 2 cbr 210 ------- 1 0.0 2.0 88 88
- 0.440168 1 2 cbr 210 ------- 1 0.0 2.0 88 88
r 0.441018 1 2 cbr 210 ------- 1 0.0 2.0 61 61
+ 0.44125 0 1 cbr 210 ------- 1 0.0 2.0 91 91
- 0.44125 0 1 cbr 210 ------- 1 0.0 2.0 91 91
r 0.443918 0 1 cbr 210 ------- 1 0.0 2.0 89 89
+ 0.443918 1 2 cbr 210 ------- 1 0.0 2.0 89 89
- 0.443918 1 2 cbr 210 ------- 1 0.0 2.0 89 89
r 0.444768 1 2 cbr 210 ------- 1 0.0 2.0 62 62
+ 0.445 0 1 cbr 210 ------- 1 0.0 2.0 92 92
- 0.445 0 1 cbr 210 ------- 1 0.0 2.0 92 92
r 0.447668 0 1 cbr 210 ------- 1 0.0 2.0 90 90
+ 0.447668 1 2 cbr 210 ------- 1 0.0 2.0 90 90
- 0.447668 1 2 cbr 210 ------- 1 0.0 2.0 90 90
r 0.448518 1 2 cbr 210 ------- 1 0.0 2.0 63 63
+ 0.44875 0 1 cbr 210 ------- 1 0.0 2.0 93 93
- 0.44875 0 1 cbr 210 ------- 1 0.0 2.0 93 93
r 0.451418 0 1 cbr 210 ------- 1 0.0 2.0 91 91
+ 0.451418 1 2 cbr 210 ------- 1 0.0 2.0 91 91
- 0.451418 1 2 cbr 210 ------- 1 0.0 2.0 91 91
r 0.452268 1 2 cbr 210 ------- 1 0.0 2.0 64 64
+ 0.4525 0 1 cbr 210 ------- 1 0.0 2.0 94 94
- 0.4525 0 1 cbr 210 ------- 1 0.0 2.0 94 94
r 0.455168 0 1 cbr 210 ------- 1 0.0 2.0 92 92
+ 0.455168 1 2 cbr 210 ------- 1 0.0 2.0 92 92
- 0.455168 1 2 cbr 210 ------- 1 0.0 2.0 92 92
r 0.456018 1 2 cbr 210 ------- 1 0.0 2.0 65 65
+ 0.45625 0 1 cbr 210 ------- 1 0.0 2.0 95 95
- 0.45625 0 1 cbr 210 ------- 1 0.0 2.0 95 95
r 0.458918 0 1 cbr 210 ------- 1 0.0 2.0 93 93
+ 0.458918 1 2 cbr 210 ------- 1 0.0 2.0 93 93
- 0.458918 1 2 cbr 210 ------- 1 0.0 2.0 93 93
r 0.459768 1 2 cbr 210 ------- 1 0.0 2.0 66 66
+ 0.46 0 1 cbr 210 ------- 1 0.0 2.0 96 96
- 0.46 0 1 cbr 210 ------- 1 0.0 2.0 96 96
r 0.462668 0 1 cbr 210 ------- 1 0.0 2.0 94 94
+ 0.462668 1 2 cbr 210 ------- 1 0.0 2.0 94 94
- 0.462668 1 2 cbr 210 ------- 1 0.0 2.0 94 94
r 0.463518 1 2 cbr 210 ------- 1 0.0 2.0 67 67
+ 0.46375 0 1 cbr 210 ------- 1 0.0 2.0 97 97
- 0.46375 0 1 cbr 210 ------- 1 0.0 2.0 97 97
r 0.466418 0 1 cbr 210 ------- 1 0.0 2.0 95 95
+ 0.466418 1 2 cbr 210 ------- 1 0.0 2.0 95 95
- 0.466418 1 2 cbr 210 ------- 1 0.0 2.0 95 95
r 0.467268 1 2 cbr 210 ------- 1 0.0 2.0 68 68
+ 0.4675 0 1 cbr 210 ------- 1 0.0 2.0 98 98
- 0.4675 0 1 cbr 210 ------- 1 0.0 2.0 98 98
r 0.470168 0 1 cbr 210 ------- 1 0.0 2.0 96 96
+ 0.470168 1 2 cbr 210 ------- 1 0.0 2.0 96 96
- 0.470168 1 2 cbr 210 ------- 1 0.0 2.0 96 96
r 0.471018 1 2 cbr 210 ------- 1 0.0 2.0 69 69
+ 0.47125 0 1 cbr 210 ------- 1 0.0 2.0 99 99
- 0.47125 0 1 cbr 210 ------- 1 0.0 2.0 99 99
r 0.473918 0 1 cbr 210 ------- 1 0.0 2.0 97 97
+ 0.473918 1 2 cbr 210 ------- 1 0.0 2.0 97 97
- 0.473918 1 2 cbr 210 ------- 1 0.0 2.0 97 97
r 0.474768 1 2 cbr 210 ------- 1 0.0 2.0 70 70
+ 0.475 0 1 cbr 210 ------- 1 0.0 2.0 100 100
- 0.475 0 1 cbr 210 ------- 1 0.0 2.0 100 100
r 0.477668 0 1 cbr 210 ------- 1 0.0 2.0 98 98
+ 0.477668 1 2 cbr 210 ------- 1 0.0 2.0 98 98
- 0.477668 1 2 cbr 210 ------- 1 0.0 2.0 98 98
r 0.478518 1 2 cbr 210 ------- 1 0.0 2.0 71 71
+ 0.47875 0 1 cbr 210 ------- 1 0.0 2.0 101 101
- 0.47875 0 1 cbr 210 ------- 1 0.0 2.0 101 101
r 0.481418 0 1 cbr 210 ------- 1 0.0 2.0 99 99
+ 0.481418 1 2 cbr 210 ------- 1 0.0 2.0 99 99
- 0.481418 1 2 cbr 210 ------- 1 0.0 2.0 99 99
r 0.482268 1 2 cbr 210 ------- 1 0.0 2.0 72 72
+ 0.4825 0 1 cbr 210 ------- 1 0.0 2.0 102 102
- 0.4825 0 1 cbr 210 ------- 1 0.0 2.0 102 102
r 0.485168 0 1 cbr 210 ------- 1 0.0 2.0 100 100
+ 0.485168 1 2 cbr 210 ------- 1 0.0 2.0 100 100
- 0.485168 1 2 cbr 210 ------- 1 0.0 2.0 100 100
r 0.486018 1 2 cbr 210 ------- 1 0.0 2.0 73 73
+ 0.48625 0 1 cbr 210 ------- 1 0.0 2.0 103 103
- 0.48625 0 1 cbr 210 ------- 1 0.0 2.0 103 103
r 0.488918 0 1 cbr 210 ------- 1 0.0 2.0 101 101
+ 0.488918 1 2 cbr 210 ------- 1 0.0 2.0 101 101
- 0.488918 1 2 cbr 210 ------- 1 0.0 2.0 101 101
r 0.489768 1 2 cbr 210 ------- 1 0.0 2.0 74 74
+ 0.49 0 1 cbr 210 ------- 1 0.0 2.0 104 104
- 0.49 0 1 cbr 210 ------- 1 0.0 2.0 104 104
r 0.492668 0 1 cbr 210 ------- 1 0.0 2.0 102 102
+ 0.492668 1 2 cbr 210 ------- 1 0.0 2.0 102 102
- 0.492668 1 2 cbr 210 ------- 1 0.0 2.0 102 102
r 0.493518 1 2 cbr 210 ------- 1 0.0 2.0 75 75
+ 0.49375 0 1 cbr 210 ------- 1 0.0 2.0 105 105
- 0.49375 0 1 cbr 210 ------- 1 0.0 2.0 105 105
r 0.496418 0 1 cbr 210 ------- 1 0.0 2.0 103 103
+ 0.496418 1 2 cbr 210 ------- 1 0.0 2.0 103 103
- 0.496418 1 2 cbr 210 ------- 1 0.0 2.0 103 103
r 0.497268 1 2 cbr 210 ------- 1 0.0 2.0 76 76
+ 0.4975 0 1 cbr 210 ------- 1 0.0 2.0 106 106
- 0.4975 0 1 cbr 210 ------- 1 0.0 2.0 106 106
r 0.500168 0 1 cbr 210 ------- 1 0.0 2.0 104 104
+ 0.500168 1 2 cbr 210 ------- 1 0.0 2.0 104 104
- 0.500168 1 2 cbr 210 ------- 1 0.0 2.0 104 104
r 0.501018 1 2 cbr 210 ------- 1 0.0 2.0 77 77
+ 0.50125 0 1 cbr 210 ------- 1 0.0 2.0 107 107
- 0.50125 0 1 cbr 210 ------- 1 0.0 2.0 107 107
r 0.503918 0 1 cbr 210 ------- 1 0.0 2.0 105 105
+ 0.503918 1 2 cbr 210 ------- 1 0.0 2.0 105 105
- 0.503918 1 2 cbr 210 ------- 1 0.0 2.0 105 105
r 0.504768 1 2 cbr 210 ------- 1 0.0 2.0 78 78
+ 0.505 0 1 cbr 210 ------- 1 0.0 2.0 108 108
- 0.505 0 1 cbr 210 ------- 1 0.0 2.0 108 108
r 0.507668 0 1 cbr 210 ------- 1 0.0 2.0 106 106
+ 0.507668 1 2 cbr 210 ------- 1 0.0 2.0 106 106
- 0.507668 1 2 cbr 210 ------- 1 0.0 2.0 106 106
r 0.508518 1 2 cbr 210 ------- 1 0.0 2.0 79 79
+ 0.50875 0 1 cbr 210 ------- 1 0.0 2.0 109 109
- 0.50875 0 1 cbr 210 ------- 1 0.0 2.0 109 109
r 0.511418 0 1 cbr 210 ------- 1 0.0 2.0 107 107
+ 0.511418 1 2 cbr 210 ------- 1 0.0 2.0 107 107
- 0.511418 1 2 cbr 210 ------- 1 0.0 2.0 107 107
r 0.512268 1 2 cbr 210 ------- 1 0.0 2.0 80 80
+ 0.5125 0 1 cbr 210 ------- 1 0.0 2.0 110 110
- 0.5125 0 1 cbr 210 ------- 1 0.0 2.0 110 110
r 0.515168 0 1 cbr 210 ------- 1 0.0 2.0 108 108
+ 0.515168 1 2 cbr 210 ------- 1 0.0 2.0 108 108
- 0.515168 1 2 cbr 210 ------- 1 0.0 2.0 108 108
r 0.516018 1 2 cbr 210 ------- 1 0.0 2.0 81 81
+ 0.51625 0 1 cbr 210 ------- 1 0.0 2.0 111 111
- 0.51625 0 1 cbr 210 ------- 1 0.0 2.0 111 111
r 0.518918 0 1 cbr 210 ------- 1 0.0 2.0 109 109
+ 0.518918 1 2 cbr 210 ------- 1 0.0 2.0 109 109
- 0.518918 1 2 cbr 210 ------- 1 0.0 2.0 109 109
r 0.519768 1 2 cbr 210 ------- 1 0.0 2.0 82 82
+ 0.52 0 1 cbr 210 ------- 1 0.0 2.0 112 112
- 0.52 0 1 cbr 210 ------- 1 0.0 2.0 112 112
r 0.522668 0 1 cbr 210 ------- 1 0.0 2.0 110 110
+ 0.522668 1 2 cbr 210 ------- 1 0.0 2.0 110 110
- 0.522668 1 2 cbr 210 ------- 1 0.0 2.0 110 110
r 0.523518 1 2 cbr 210 ------- 1 0.0 2.0 83 83
+ 0.52375 0 1 cbr 210 ------- 1 0.0 2.0 113 113
- 0.52375 0 1 cbr 210 ------- 1 0.0 2.0 113 113
r 0.526418 0 1 cbr 210 ------- 1 0.0 2.0 111 111
+ 0.526418 1 2 cbr 210 ------- 1 0.0 2.0 111 111