V -t * -v 1.0a5 -a 0
A -t * -n 1 -p 0 -o 0x7fffffff -c 30 -a 1
A -t * -h 1 -m 1073741823 -s 0
c -t * -i 1 -n Blue
n -t * -a 0 -s 0 -S UP -v circle -c black -i black
n -t * -a 1 -s 1 -S UP -v circle -c black -i black
n -t * -a 2 -s 2 -S UP -v circle -c black -i black
l -t * -s 0 -d 1 -S UP -r 10000000 -D 0.01 -c black -o right
l -t * -s 1 -d 2 -S UP -r 800000 -D 0.10000000000000001 -c black -o right
q -t * -s 2 -d 1 -a 0.5
q -t * -s 1 -d 2 -a 0.5
+ -t 0.1 -s 0 -d 1 -p cbr -e 210 -c 1 -i 0 -a 1 -x {0.0 2.0 0 ------- null}
- -t 0.1 -s 0 -d 1 -p cbr -e 210 -c 1 -i 0 -a 1 -x {0.0 2.0 0 ------- null}
h -t 0.1 -s 0 -d 1 -p cbr -e 210 -c 1 -i 0 -a 1 -x {0.0 2.0 -1 ------- null}
+ -t 0.10375 -s 0 -d 1 -p cbr -e 210 -c 1 -i 1 -a 1 -x {0.0 2.0 1 ------- null}
- -t 0.10375 -s 0 -d 1 -p cbr -e 210 -c 1 -i 1 -a 1 -x {0.0 2.0 1 ------- null}
h -t 0.10375 -s 0 -d 1 -p cbr -e 210 -c 1 -i 1 -a 1 -x {0.0 2.0 -1 ------- null}
+ -t 0.1075 -s 0 -d 1 -p cbr -e 210 -c 1 -i 2 -a 1 -x {0.0 2.0 2 ------- null}
- -t 0.1075 -s 0 -d 1 -p cbr -e 210 -c 1 -i 2 -a 1 -x {0.0 2.0 2 ------- null}
h -t 0.1075 -s 0 -d 1 -p cbr -e 210 -c 1 -i 2 -a 1 -x {0.0 2.0 -1 ------- null}
r -t 0.110168 -s 0 -d 1 -p cbr -e 210 -c 1 -i 0 -a 1 -x {0.0 2.0 0 ------- null}
+ -t 0.110168 -s 1 -d 2 -p cbr -e 210 -c 1 -i 0 -a 1 -x {0.0 2.0 0 ------- null}
- -t 0.110168 -s 1 -d 2 -p cbr -e 210 -c 1 -i 0 -a 1 -x {0.0 2.0 0 ------- null}
h -t 0.110168 -s 1 -d 2 -p cbr -e 210 -c 1 -i 0 -a 1 -x {0.0 2.0 -1 ------- null}
+ -t 0.11125 -s 0 -d 1 -p cbr -e 210 -c 1 -i 3 -a 1 -x {0.0 2.0 3 ------- null}
- -t 0.11125 -s 0 -d 1 -p cbr -e 210 -c 1 -i 3 -a 1 -x {0.0 2.0 3 ------- null}
h -t 0.11125 -s 0 -d 1 -p cbr -e 210 -c 1 -i 3 -a 1 -x {0.0 2.0 -1 ------- null}
r -t 0.113918 -s 0 -d 1 -p cbr -e 210 -c 1 -i 1 -a 1 -x {0.0 2.0 1 ------- null}
+ -t 0.113918 -s 1 -d 2 -p cbr -e 210 -c 1 -i 1 -a 1 -x {0.0 2.0 1 ------- null}
- -t 0.113918 -s 1 -d 2 -p cbr -e 210 -c 1 -i 1 -a 1 -x {0.0 2.0 1 ------- null}
h -t 0.113918 -s 1 -d 2 -p cbr -e 210 -c 1 -i 1 -a 1 -x {0.0 2.0 -1 ------- null}
+ -t 0.115 -s 0 -d 1 -p cbr -e 210 -c 1 -i 4 -a 1 -x {0.0 2.0 4 ------- null}
- -t 0.115 -s 0 -d 1 -p cbr -e 210 -c 1 -i 4 -a 1 -x {0.0 2.0 4 ------- null}
h -t 0.115 -s 0 -d 1 -p cbr -e 210 -c 1 -i 4 -a 1 -x {0.0 2.0 -1 ------- null}
r -t 0.117668 -s 0 -d 1 -p cbr -e 210 -c 1 -i 2 -a 1 -x {0.0 2.0 2 ------- null}
+ -t 0.117668 -s 1 -d 2 -p cbr -e 210 -c 1 -i 2 -a 1 -x {0.0 2.0 2 ------- null}
- -t 0.117668 -s 1 -d 2 -p cbr -e 210 -c 1 -i 2 -a 1 -x {0.0 2.0 2 ------- null}
h -t 0.117668 -s 1 -d 2 -p cbr -e 210 -c 1 -i 2 -a 1 -x {0.0 2.0 -1 ------- null}
+ -t 0.11875 -s 0 -d 1 -p cbr -e 210 -c 1 -i 5 -a 1 -x {0.0 2.0 5 ------- null}
- -t 0.11875 -s 0 -d 1 -p cbr -e 210 -c 1 -i 5 -a 1 -x {0.0 2.0 5 ------- null}
h -t 0.11875 -s 0 -d 1 -p cbr -e 210 -c 1 -i 5 -a 1 -x {0.0 2.0 -1 ------- null}
r -t 0.121418 -s 0 -d 1 -p cbr -e 210 -c 1 -i 3 -a 1 -x {0.0 2.0 3 ------- null}
+ -t 0.121418 -s 1 -d 2 -p cbr -e 210 -c 1 -i 3 -a 1 -x {0.0 2.0 3 ------- null}
- -t 0.121418 -s 1 -d 2 -p cbr -e 210 -c 1 -i 3 -a 1 -x {0.0 2.0 3 ------- null}
h -t 0.121418 -s 1 -d 2 -p cbr -e 210 -c 1 -i 3 -a 1 -x {0.0 2.0 -1 ------- null}
+ -t 0.1225 -s 0 -d 1 -p cbr -e 210 -c 1 -i 6 -a 1 -x {0.0 2.0 6 ------- null}
- -t 0.1225 -s 0 -d 1 -p cbr -e 210 -c 1 -i 6 -a 1 -x {0.0 2.0 6 ------- null}
h -t 0.1225 -s 0 -d 1 -p cbr -e 210 -c 1 -i 6 -a 1 -x {0.0 2.0 -1 ------- null}
r -t 0.125168 -s 0 -d 1 -p cbr -e 210 -c 1 -i 4 -a 1 -x {0.0 2.0 4 ------- null}
+ -t 0.125168 -s 1 -d 2 -p cbr -e 210 -c 1 -i 4 -a 1 -x {0.0 2.0 4 ------- null}
- -t 0.125168 -s 1 -d 2 -p cbr -e 210 -c 1 -i 4 -a 1 -x {0.0 2.0 4 ------- null}
h -t 0.125168 -s 1 -d 2 -p cbr -e 210 -c 1 -i 4 -a 1 -x {0.0 2.0 -1 ------- null}
+ -t 0.12625 -s 0 -d 1 -p cbr -e 210 -c 1 -i 7 -a 1 -x {0.0 2.0 7 ------- null}
- -t 0.12625 -s 0 -d 1 -p cbr -e 210 -c 1 -i 7 -a 1 -x {0.0 2.0 7 ------- null}
h -t 0.12625 -s 0 -d 1 -p cbr -e 210 -c 1 -i 7 -a 1 -x {0.0 2.0 -1 ------- null}
r -t 0.128918 -s 0 -d 1 -p cbr -e 210 -c 1 -i 5 -a 1 -x {0.0 2.0 5 ------- null}
+ -t 0.128918 -s 1 -d 2 -p cbr -e 210 -c 1 -i 5 -a 1 -x {0.0 2.0 5 ------- null}
- -t 0.128918 -s 1 -d 2 -p cbr -e 210 -c 1 -i 5 -a 1 -x {0.0 2.0 5 ------- null}
h -t 0.128918 -s 1 -d 2 -p cbr -e 210 -c 1 -i 5 -a 1 -x {0.0 2.0 -1 ------- null}
+ -t 0.13 -s 0 -d 1 -p cbr -e 210 -c 1 -i 8 -a 1 -x {0.0 2.0 8 ------- null}
- -t 0.13 -s 0 -d 1 -p cbr -e 210 -c 1 -i 8 -a 1 -x {0.0 2.0 8 ------- null}
h -t 0.13 -s 0 -d 1 -p cbr -e 210 -c 1 -i 8 -a 1 -x {0.0 2.0 -1 ------- null}
r -t 0.132668 -s 0 -d 1 -p cbr -e 210 -c 1 -i 6 -a 1 -x {0.0 2.0 6 ------- null}
+ -t 0.132668 -s 1 -d 2 -p cbr -e 210 -c 1 -i 6 -a 1 -x {0.0 2.0 6 ------- null}
- -t 0.132668 -s 1 -d 2 -p cbr -e 210 -c 1 -i 6 -a 1 -x {0.0 2.0 6 ------- null}
h -t 0.132668 -s 1 -d 2 -p cbr -e 210 -c 1 -i 6 -a 1 -x {0.0 2.0 -1 ------- null}
+ -t 0.13375 -s 0 -d 1 -p cbr -e 210 -c 1 -i 9 -a 1 -x {0.0 2.0 9 ------- null}
- -t 0.13375 -s 0 -d 1 -p cbr -e 210 -c 1 -i 9 -a 1 -x {0.0 2.0 9 ------- null}
h -t 0.13375 -s 0 -d 1 -p cbr -e 210 -c 1 -i 9 -a 1 -x {0.0 2.0 -1 ------- null}
r -t 0.136418 -s 0 -d 1 -p cbr -e 210 -c 1 -i 7 -a 1 -x {0.0 2.0 7 ------- null}
+ -t 0.136418 -s 1 -d 2 -p cbr -e 210 -c 1 -i 7 -a 1 -x {0.0 2.0 7 ------- null}
- -t 0.136418 -s 1 -d 2 -p cbr -e 210 -c 1 -i 7 -a 1 -x {0.0 2.0 7 ------- null}
h -t 0.136418 -s 1 -d 2 -p cbr -e 210 -c 1 -i 7 -a 1 -x {0.0 2.0 -1 ------- null}
+ -t 0.1375 -s 0 -d 1 -p cbr -e 210 -c 1 -i 10 -a 1 -x {0.0 2.0 10 ------- null}
- -t 0.1375 -s 0 -d 1 -p cbr -e 210 -c 1 -i 10 -a 1 -x {0.0 2.0 10 ------- null}
h -t 0.1375 -s 0 -d 1 -p cbr -e 210 -c 1 -i 10 -a 1 -x {0.0 2.0 -1 ------- null}
r -t 0.140168 -s 0 -d 1 -p cbr -e 210 -c 1 -i 8 -a 1 -x {0.0 2.0 8 ------- null}
+ -t 0.140168 -s 1 -d 2 -p cbr -e 210 -c 1 -i 8 -a 1 -x {0.0 2.0 8 ------- null}
- -t 0.140168 -s 1 -d 2 -p cbr -e 210 -c 1 -i 8 -a 1 -x {0.0 2.0 8 ------- null}
h -t 0.140168 -s 1 -d 2 -p cbr -e 210 -c 1 -i 8 -a 1 -x {0.0 2.0 -1 ------- null}
+ -t 0.14125 -s 0 -d 1 -p cbr -e 210 -c 1 -i 11 -a 1 -x {0.0 2.0 11 ------- null}
- -t 0.14125 -s 0 -d 1 -p cbr -e 210 -c 1 -i 11 -a 1 -x {0.0 2.0 11 ------- null}
h -t 0.14125 -s 0 -d 1 -p cbr -e 210 -c 1 -i 11 -a 1 -x {0.0 2.0 -1 ------- null}
r -t 0.143918 -s 0 -d 1 -p cbr -e 210 -c 1 -i 9 -a 1 -x {0.0 2.0 9 ------- null}
+ -t 0.143918 -s 1 -d 2 -p cbr -e 210 -c 1 -i 9 -a 1 -x {0.0 2.0 9 ------- null}
- -t 0.143918 -s 1 -d 2 -p cbr -e 210 -c 1 -i 9 -a 1 -x {0.0 2.0 9 ------- null}
h -t 0.143918 -s 1 -d 2 -p cbr -e 210 -c 1 -i 9 -a 1 -x {0.0 2.0 -1 ------- null}
+ -t 0.145 -s 0 -d 1 -p cbr -e 210 -c 1 -i 12 -a 1 -x {0.0 2.0 12 ------- null}
- -t 0.145 -s 0 -d 1 -p cbr -e 210 -c 1 -i 12 -a 1 -x {0.0 2.0 12 ------- null}
h -t 0.145 -s 0 -d 1 -p cbr -e 210 -c 1 -i 12 -a 1 -x {0.0 2.0 -1 ------- null}
r -t 0.147668 -s 0 -d 1 -p cbr -e 210 -c 1 -i 10 -a 1 -x {0.0 2.0 10 ------- null}
+ -t 0.147668 -s 1 -d 2 -p cbr -e 210 -c 1 -i 10 -a 1 -x {0.0 2.0 10 ------- null}
- -t 0.147668 -s 1 -d 2 -p cbr -e 210 -c 1 -i 10 -a 1 -x {0.0 2.0 10 ------- null}
h -t 0.147668 -s 1 -d 2 -p cbr -e 210 -c 1 -i 10 -a 1 -x {0.0 2.0 -1 ------- null}
+ -t 0.14875 -s 0 -d 1 -p cbr -e 210 -c 1 -i 13 -a 1 -x {0.0 2.0 13 ------- null}
- -t 0.14875 -s 0 -d 1 -p cbr -e 210 -c 1 -i 13 -a 1 -x {0.0 2.0 13 ------- null}
h -t 0.14875 -s 0 -d 1 -p cbr -e 210 -c 1 -i 13 -a 1 -x {0.0 2.0 -1 ------- null}
r -t 0.151418 -s 0 -d 1 -p cbr -e 210 -c 1 -i 11 -a 1 -x {0.0 2.0 11 ------- null}
+ -t 0.151418 -s 1 -d 2 -p cbr -e 210 -c 1 -i 11 -a 1 -x {0.0 2.0 11 ------- null}
- -t 0.151418 -s 1 -d 2 -p cbr -e 210 -c 1 -i 11 -a 1 -x {0.0 2.0 11 ------- null}
h -t 0.151418 -s 1 -d 2 -p cbr -e 210 -c 1 -i 11 -a 1 -x {0.0 2.0 -1 ------- null}
+ -t 0.1525 -s 0 -d 1 -p cbr -e 210 -c 1 -i 14 -a 1 -x {0.0 2.0 14 ------- null}
- -t 0.1525 -s 0 -d 1 -p cbr -e 210 -c 1 -i 14 -a 1 -x {0.0 2.0 14 ------- null}
h -t 0.1525 -s 0 -d 1 -p cbr -e 210 -c 1 -i 14 -a 1 -x {0.0 2.0 -1 ------- null}
r -t 0.155168 -s 0 -d 1 -p cbr -e 210 -c 1 -i 12 -a 1 -x {0.0 2.0 12 ------- null}
+ -t 0.155168 -s 1 -d 2 -p cbr -e 210 -c 1 -i 12 -a 1 -x {0.0 2.0 12 ------- null}
- -t 0.155168 -s 1 -d 2 -p cbr -e 210 -c 1 -i 12 -a 1 -x {0.0 2.0 12 ------- null}
h -t 0.155168 -s 1 -d 2 -p cbr -e 210 -c 1 -i 12 -a 1 -x {0.0 2.0 -1 ------- null}
+ -t 0.15625 -s 0 -d 1 -p cbr -e 210 -c 1 -i 15 -a 1 -x {0.0 2.0 15 ------- null}
- -t 0.15625 -s 0 -d 1 -p cbr -e 210 -c 1 -i 15 -a 1 -x {0.0 2.0 15 ------- null}
h -t 0.15625 -s 0 -d 1 -p cbr -e 210 -c 1 -i 15 -a 1 -x {0.0 2.0 -1 ------- null}
r -t 0.158918 -s 0 -d 1 -p cbr -e 210 -c 1 -i 13 -a 1 -x {0.0 2.0 13 ------- null}
+ -t 0.158918 -s 1 -d 2 -p cbr -e 210 -c 1 -i 13 -a 1 -x {0.0 2.0 13 ------- null}
- -t 0.158918 -s 1 -d 2 -p cbr -e 210 -c 1 -i 13 -a 1 -x {0.0 2.0 13 ------- null}
h -t 0.158918 -s 1 -d 2 -p cbr -e 210 -c 1 -i 13 -a 1 -x {0.0 2.0 -1 ------- null}
+ -t 0.16 -s 0 -d 1 -p cbr -e 210 -c 1 -i 16 -a 1 -x {0.0 2.0 16 ------- null}
- -t 0.16 -s 0 -d 1 -p cbr -e 210 -c 1 -i 16 -a 1 -x {0.0 2.0 16 ------- null}
h -t 0.16 -s 0 -d 1 -p cbr -e 210 -c 1 -i 16 -a 1 -x {0.0 2.0 -1 ------- null}
r -t 0.162668 -s 0 -d 1 -p cbr -e 210 -c 1 -i 14 -a 1 -x {0.0 2.0 14 ------- null}
+ -t 0.162668 -s 1 -d 2 -p cbr -e 210 -c 1 -i 14 -a 1 -x {0.0 2.0 14 ------- null}
- -t 0.162668 -s 1 -d 2 -p cbr -e 210 -c 1 -i 14 -a 1 -x {0.0 2.0 14 ------- null}
h -t 0.162668 -s 1 -d 2 -p cbr -e 210 -c 1 -i 14 -a 1 -x {0.0 2.0 -1 ------- null}
+ -t 0.16375 -s 0 -d 1 -p cbr -e 210 -c 1 -i 17 -a 1 -x {0.0 2.0 17 ------- null}
- -t 0.16375 -s 0 -d 1 -p cbr -e 210 -c 1 -i 17 -a 1 -x {0.0 2.0 17 ------- null}
h -t 0.16375 -s 0 -d 1 -p cbr -e 210 -c 1 -i 17 -a 1 -x {0.0 2.0 -1 ------- null}
r -t 0.166418 -s 0 -d 1 -p cbr -e 210 -c 1 -i 15 -a 1 -x {0.0 2.0 15 ------- null}
+ -t 0.166418 -s 1 -d 2 -p cbr -e 210 -c 1 -i 15 -a 1 -x {0.0 2.0 15 ------- null}
- -t 0.166418 -s 1 -d 2 -p cbr -e 210 -c 1 -i 15 -a 1 -x {0.0 2.0 15 ------- null}
h -t 0.166418 -s 1 -d 2 -p cbr -e 210 -c 1 -i 15 -a 1 -x {0.0 2.0 -1 ------- null}
+ -t 0.1675 -s 0 -d 1 -p cbr -e 210 -c 1 -i 18 -a 1 -x {0.0 2.0 18 ------- null}
- -t 0.1675 -s 0 -d 1 -p cbr -e 210 -c 1 -i 18 -a 1 -x {0.0 2.0 18 ------- null}
h -t 0.1675 -s 0 -d 1 -p cbr -e 210 -c 1 -i 18 -a 1 -x {0.0 2.0 -1 ------- null}
r -t 0.170168 -s 0 -d 1 -p cbr -e 210 -c 1 -i 16 -a 1 -x {0.0 2.0 16 ------- null}
+ -t 0.170168 -s 1 -d 2 -p cbr -e 210 -c 1 -i 16 -a 1 -x {0.0 2.0 16 ------- null}
- -t 0.170168 -s 1 -d 2 -p cbr -e 210 -c 1 -i 16 -a 1 -x {0.0 2.0 16 ------- null}
h -t 0.170168 -s 1 -d 2 -p cbr -e 210 -c 1 -i 16 -a 1 -x {0.0 2.0 -1 ------- null}
+ -t 0.17125 -s 0 -d 1 -p cbr -e 210 -c 1 -i 19 -a 1 -x {0.0 2.0 19 ------- null}
- -t 0.17125 -s 0 -d 1 -p cbr -e 210 -c 1 -i 19 -a 1 -x {0.0 2.0 19 ------- null}
h -t 0.17125 -s 0 -d 1 -p cbr -e 210 -c 1 -i 19 -a 1 -x {0.0 2.0 -1 ------- null}
r -t 0.173918 -s 0 -d 1 -p cbr -e 210 -c 1 -i 17 -a 1 -x {0.0 2.0 17 ------- null}
+ -t 0.173918 -s 1 -d 2 -p cbr -e 210 -c 1 -i 17 -a 1 -x {0.0 2.0 17 ------- null}
- -t 0.173918 -s 1 -d 2 -p cbr -e 210 -c 1 -i 17 -a 1 -x {0.0 2.0 17 ------- null}
h -t 0.173918 -s 1 -d 2 -p cbr -e 210 -c 1 -i 17 -a 1 -x {0.0 2.0 -1 ------- null}
+ -t 0.175 -s 0 -d 1 -p cbr -e 210 -c 1 -i 20 -a 1 -x {0.0 2.0 20 ------- null}
- -t 0.175 -s 0 -d 1 -p cbr -e 210 -c 1 -i 20 -a 1 -x {0.0 2.0 20 ------- null}
h -t 0.175 -s 0 -d 1 -p cbr -e 210 -c 1 -i 20 -a 1 -x {0.0 2.0 -1 ------- null}
r -t 0.177668 -s 0 -d 1 -p cbr -e 210 -c 1 -i 18 -a 1 -x {0.0 2.0 18 ------- null}
+ -t 0.177668 -s 1 -d 2 -p cbr -e 210 -c 1 -i 18 -a 1 -x {0.0 2.0 18 ------- null}
- -t 0.177668 -s 1 -d 2 -p cbr -e 210 -c 1 -i 18 -a 1 -x {0.0 2.0 18 ------- null}
h -t 0.177668 -s 1 -d 2 -p cbr -e 210 -c 1 -i 18 -a 1 -x {0.0 2.0 -1 ------- null}
+ -t 0.17875 -s 0 -d 1 -p cbr -e 210 -c 1 -i 21 -a 1 -x {0.0 2.0 21 ------- null}
- -t 0.17875 -s 0 -d 1 -p cbr -e 210 -c 1 -i 21 -a 1 -x {0.0 2.0 21 ------- null}
h -t 0.17875 -s 0 -d 1 -p cbr -e 210 -c 1 -i 21 -a 1 -x {0.0 2.0 -1 ------- null}
r -t 0.181418 -s 0 -d 1 -p cbr -e 210 -c 1 -i 19 -a 1 -x {0.0 2.0 19 ------- null}
+ -t 0.181418 -s 1 -d 2 -p cbr -e 210 -c 1 -i 19 -a 1 -x {0.0 2.0 19 ------- null}
- -t 0.181418 -s 1 -d 2 -p cbr -e 210 -c 1 -i 19 -a 1 -x {0.0 2.0 19 ------- null}
h -t 0.181418 -s 1 -d 2 -p cbr -e 210 -c 1 -i 19 -a 1 -x {0.0 2.0 -1 ------- null}
+ -t 0.1825 -s 0 -d 1 -p cbr -e 210 -c 1 -i 22 -a 1 -x {0.0 2.0 22 ------- null}
- -t 0.1825 -s 0 -d 1 -p cbr -e 210 -c 1 -i 22 -a 1 -x {0.0 2.0 22 ------- null}
h -t 0.1825 -s 0 -d 1 -p cbr -e 210 -c 1 -i 22 -a 1 -x {0.0 2.0 -1 ------- null}
r -t 0.185168 -s 0 -d 1 -p cbr -e 210 -c 1 -i 20 -a 1 -x {0.0 2.0 20 ------- null}
+ -t 0.185168 -s 1 -d 2 -p cbr -e 210 -c 1 -i 20 -a 1 -x {0.0 2.0 20 ------- null}
- -t 0.185168 -s 1 -d 2 -p cbr -e 210 -c 1 -i 20 -a 1 -x {0.0 2.0 20 ------- null}
h -t 0.185168 -s 1 -d 2 -p cbr -e 210 -c 1 -i 20 -a 1 -x {0.0 2.0 -1 ------- null}
+ -t 0.18625 -s 0 -d 1 -p cbr -e 210 -c 1 -i 23 -a 1 -x {0.0 2.0 23 ------- null}
- -t 0.18625 -s 0 -d 1 -p cbr -e 210 -c 1 -i 23 -a 1 -x {0.0 2.0 23 ------- null}
h -t 0.18625 -s 0 -d 1 -p cbr -e 210 -c 1 -i 23 -a 1 -x {0.0 2.0 -1 ------- null}
r -t 0.188918 -s 0 -d 1 -p cbr -e 210 -c 1 -i 21 -a 1 -x {0.0 2.0 21 ------- null}
+ -t 0.188918 -s 1 -d 2 -p cbr -e 210 -c 1 -i 21 -a 1 -x {0.0 2.0 21 ------- null}
- -t 0.188918 -s 1 -d 2 -p cbr -e 210 -c 1 -i 21 -a 1 -x {0.0 2.0 21 ------- null}
h -t 0.188918 -s 1 -d 2 -p cbr -e 210 -c 1 -i 21 -a 1 -x {0.0 2.0 -1 ------- null}
+ -t 0.19 -s 0 -d 1 -p cbr -e 210 -c 1 -i 24 -a 1 -x {0.0 2.0 24 ------- null}
- -t 0.19 -s 0 -d 1 -p cbr -e 210 -c 1 -i 24 -a 1 -x {0.0 2.0 24 ------- null}
h -t 0.19 -s 0 -d 1 -p cbr -e 210 -c 1 -i 24 -a 1 -x {0.0 2.0 -1 ------- null}
r -t 0.192668 -s 0 -d 1 -p cbr -e 210 -c 1 -i 22 -a 1 -x {0.0 2.0 22 ------- null}
+ -t 0.192668 -s 1 -d 2 -p cbr -e 210 -c 1 -i 22 -a 1 -x {0.0 2.0 22 ------- null}
- -t 0.192668 -s 1 -d 2 -p cbr -e 210 -c 1 -i 22 -a 1 -x {0.0 2.0 22 ------- null}
h -t 0.192668 -s 1 -d 2 -p cbr -e 210 -c 1 -i 22 -a 1 -x {0.0 2.0 -1 ------- null}
+ -t 0.19375 -s 0 -d 1 -p cbr -e 210 -c 1 -i 25 -a 1 -x {0.0 2.0 25 ------- null}
- -t 0.19375 -s 0 -d 1 -p cbr -e 210 -c 1 -i 25 -a 1 -x {0.0 2.0 25 ------- null}
h -t 0.19375 -s 0 -d 1 -p cbr -e 210 -c 1 -i 25 -a 1 -x {0.0 2.0 -1 ------- null}
r -t 0.196418 -s 0 -d 1 -p cbr -e 210 -c 1 -i 23 -a 1 -x {0.0 2.0 23 ------- null}
+ -t 0.196418 -s 1 -d 2 -p cbr -e 210 -c 1 -i 23 -a 1 -x {0.0 2.0 23 ------- null}
- -t 0.196418 -s 1 -d 2 -p cbr -e 210 -c 1 -i 23 -a 1 -x {0.0 2.0 23 ------- null}
h -t 0.196418 -s 1 -d 2 -p cbr -e 210 -c 1 -i 23 -a 1 -x {0.0 2.0 -1 ------- null}
+ -t 0.1975 -s 0 -d 1 -p cbr -e 210 -c 1 -i 26 -a 1 -x {0.0 2.0 26 ------- null}
- -t 0.1975 -s 0 -d 1 -p cbr -e 210 -c 1 -i 26 -a 1 -x {0.0 2.0 26 ------- null}
h -t 0.1975 -s 0 -d 1 -p cbr -e 210 -c 1 -i 26 -a 1 -x {0.0 2.0 -1 ------- null}
r -t 0.200168 -s 0 -d 1 -p cbr -e 210 -c 1 -i 24 -a 1 -x {0.0 2.0 24 ------- null}
+ -t 0.200168 -s 1 -d 2 -p cbr -e 210 -c 1 -i 24 -a 1 -x {0.0 2.0 24 ------- null}
- -t 0.200168 -s 1 -d 2 -p cbr -e 210 -c 1 -i 24 -a 1 -x {0.0 2.0 24 ------- null}
h -t 0.200168 -s 1 -d 2 -p cbr -e 210 -c 1 -i 24 -a 1 -x {0.0 2.0 -1 ------- null}
+ -t 0.20125 -s 0 -d 1 -p cbr -e 210 -c 1 -i 27 -a 1 -x {0.0 2.0 27 ------- null}
- -t 0.20125 -s 0 -d 1 -p cbr -e 210 -c 1 -i 27 -a 1 -x {0.0 2.0 27 ------- null}
h -t 0.20125 -s 0 -d 1 -p cbr -e 210 -c 1 -i 27 -a 1 -x {0.0 2.0 -1 ------- null}
r -t 0.203918 -s 0 -d 1 -p cbr -e 210 -c 1 -i 25 -a 1 -x {0.0 2.0 25 ------- null}
+ -t 0.203918 -s 1 -d 2 -p cbr -e 210 -c 1 -i 25 -a 1 -x {0.0 2.0 25 ------- null}
- -t 0.203918 -s 1 -d 2 -p cbr -e 210 -c 1 -i 25 -a 1 -x {0.0 2.0 25 ------- null}
h -t 0.203918 -s 1 -d 2 -p cbr -e 210 -c 1 -i 25 -a 1 -x {0.0 2.0 -1 ------- null}
+ -t 0.205 -s 0 -d 1 -p cbr -e 210 -c 1 -i 28 -a 1 -x {0.0 2.0 28 ------- null}
- -t 0.205 -s 0 -d 1 -p cbr -e 210 -c 1 -i 28 -a 1 -x {0.0 2.0 28 ------- null}
h -t 0.205 -s 0 -d 1 -p cbr -e 210 -c 1 -i 28 -a 1 -x {0.0 2.0 -1 ------- null}
r -t 0.207668 -s 0 -d 1 -p cbr -e 210 -c 1 -i 26 -a 1 -x {0.0 2.0 26 ------- null}
+ -t 0.207668 -s 1 -d 2 -p cbr -e 210 -c 1 -i 26 -a 1 -x {0.0 2.0 26 ------- null}
- -t 0.207668 -s 1 -d 2 -p cbr -e 210 -c 1 -i 26 -a 1 -x {0.0 2.0 26 ------- null}
h -t 0.207668 -s 1 -d 2 -p cbr -e 210 -c 1 -i 26 -a 1 -x {0.0 2.0 -1 ------- null}
+ -t 0.20875 -s 0 -d 1 -p cbr -e 210 -c 1 -i 29 -a 1 -x {0.0 2.0 29 ------- null}
- -t 0.20875 -s 0 -d 1 -p cbr -e 210 -c 1 -i 29 -a 1 -x {0.0 2.0 29 ------- null}
h -t 0.20875 -s 0 -d 1 -p cbr -e 210 -c 1 -i 29 -a 1 -x {0.0 2.0 -1 ------- null}
r -t 0.211418 -s 0 -d 1 -p cbr -e 210 -c 1 -i 27 -a 1 -x {0.0 2.0 27 ------- null}
+ -t 0.211418 -s 1 -d 2 -p cbr -e 210 -c 1 -i 27 -a 1 -x {0.0 2.0 27 ------- null}
- -t 0.211418 -s 1 -d 2 -p cbr -e 210 -c 1 -i 27 -a 1 -x {0.0 2.0 27 ------- null}
h -t 0.211418 -s 1 -d 2 -p cbr -e 210 -c 1 -i 27 -a 1 -x {0.0 2.0 -1 ------- null}
r -t 0.212268 -s 1 -d 2 -p cbr -e 210 -c 1 -i 0 -a 1 -x {0.0 2.0 0 ------- null}
+ -t 0.2125 -s 0 -d 1 -p cbr -e 210 -c 1 -i 30 -a 1 -x {0.0 2.0 30 ------- null}
- -t 0.2125 -s 0 -d 1 -p cbr -e 210 -c 1 -i 30 -a 1 -x {0.0 2.0 30 ------- null}
h -t 0.2125 -s 0 -d 1 -p cbr -e 210 -c 1 -i 30 -a 1 -x {0.0 2.0 -1 ------- null}
r -t 0.215168 -s 0 -d 1 -p cbr -e 210 -c 1 -i 28 -a 1 -x {0.0 2.0 28 ------- null}
+ -t 0.215168 -s 1 -d 2 -p cbr -e 210 -c 1 -i 28 -a 1 -x {0.0 2.0 28 ------- null}
- -t 0.215168 -s 1 -d 2 -p cbr -e 210 -c 1 -i 28 -a 1 -x {0.0 2.0 28 ------- null}
h -t 0.215168 -s 1 -d 2 -p cbr -e 210 -c 1 -i 28 -a 1 -x {0.0 2.0 -1 ------- null}
r -t 0.216018 -s 1 -d 2 -p cbr -e 210 -c 1 -i 1 -a 1 -x {0.0 2.0 1 ------- null}
+ -t 0.21625 -s 0 -d 1 -p cbr -e 210 -c 1 -i 31 -a 1 -x {0.0 2.0 31 ------- null}
- -t 0.21625 -s 0 -d 1 -p cbr -e 210 -c 1 -i 31 -a 1 -x {0.0 2.0 31 ------- null}
h -t 0.21625 -s 0 -d 1 -p cbr -e 210 -c 1 -i 31 -a 1 -x {0.0 2.0 -1 ------- null}
r -t 0.218918 -s 0 -d 1 -p cbr -e 210 -c 1 -i 29 -a 1 -x {0.0 2.0 29 ------- null}
+ -t 0.218918 -s 1 -d 2 -p cbr -e 210 -c 1 -i 29 -a 1 -x {0.0 2.0 29 ------- null}
- -t 0.218918 -s 1 -d 2 -p cbr -e 210 -c 1 -i 29 -a 1 -x {0.0 2.0 29 ------- null}
h -t 0.218918 -s 1 -d 2 -p cbr -e 210 -c 1 -i 29 -a 1 -x {0.0 2.0 -1 ------- null}
r -t 0.219768 -s 1 -d 2 -p cbr -e 210 -c 1 -i 2 -a 1 -x {0.0 2.0 2 ------- null}
+ -t 0.22 -s 0 -d 1 -p cbr -e 210 -c 1 -i 32 -a 1 -x {0.0 2.0 32 ------- null}
- -t 0.22 -s 0 -d 1 -p cbr -e 210 -c 1 -i 32 -a 1 -x {0.0 2.0 32 ------- null}
h -t 0.22 -s 0 -d 1 -p cbr -e 210 -c 1 -i 32 -a 1 -x {0.0 2.0 -1 ------- null}
r -t 0.222668 -s 0 -d 1 -p cbr -e 210 -c 1 -i 30 -a 1 -x {0.0 2.0 30 ------- null}
+ -t 0.222668 -s 1 -d 2 -p cbr -e 210 -c 1 -i 30 -a 1 -x {0.0 2.0 30 ------- null}
- -t 0.222668 -s 1 -d 2 -p cbr -e 210 -c 1 -i 30 -a 1 -x {0.0 2.0 30 ------- null}
h -t 0.222668 -s 1 -d 2 -p cbr -e 210 -c 1 -i 30 -a 1 -x {0.0 2.0 -1 ------- null}
r -t 0.223518 -s 1 -d 2 -p cbr -e 210 -c 1 -i 3 -a 1 -x {0.0 2.0 3 ------- null}
+ -t 0.22375 -s 0 -d 1 -p cbr -e 210 -c 1 -i 33 -a 1 -x {0.0 2.0 33 ------- null}
- -t 0.22375 -s 0 -d 1 -p cbr -e 210 -c 1 -i 33 -a 1 -x {0.0 2.0 33 ------- null}
h -t 0.22375 -s 0 -d 1 -p cbr -e 210 -c 1 -i 33 -a 1 -x {0.0 2.0 -1 ------- null}
r -t 0.226418 -s 0 -d 1 -p cbr -e 210 -c 1 -i 31 -a 1 -x {0.0 2.0 31 ------- null}
+ -t 0.226418 -s 1 -d 2 -p cbr -e 210 -c 1 -i 31 -a 1 -x {0.0 2.0 31 ------- null}
- -t 0.226418 -s 1 -d 2 -p cbr -e 210 -c 1 -i 31 -a 1 -x {0.0 2.0 31 ------- null}
h -t 0.226418 -s 1 -d 2 -p cbr -e 210 -c 1 -i 31 -a 1 -x {0.0 2.0 -1 ------- null}
r -t 0.227268 -s 1 -d 2 -p cbr -e 210 -c 1 -i 4 -a 1 -x {0.0 2.0 4 ------- null}
+ -t 0.2275 -s 0 -d 1 -p cbr -e 210 -c 1 -i 34 -a 1 -x {0.0 2.0 34 ------- null}
- -t 0.2275 -s 0 -d 1 -p cbr -e 210 -c 1 -i 34 -a 1 -x {0.0 2.0 34 ------- null}
h -t 0.2275 -s 0 -d 1 -p cbr -e 210 -c 1 -i 34 -a 1 -x {0.0 2.0 -1 ------- null}
r -t 0.230168 -s 0 -d 1 -p cbr -e 210 -c 1 -i 32 -a 1 -x {0.0 2.0 32 ------- null}
+ -t 0.230168 -s 1 -d 2 -p cbr -e 210 -c 1 -i 32 -a 1 -x {0.0 2.0 32 ------- null}
- -t 0.230168 -s 1 -d 2 -p cbr -e 210 -c 1 -i 32 -a 1 -x {0.0 2.0 32 ------- null}
h -t 0.230168 -s 1 -d 2 -p cbr -e 210 -c 1 -i 32 -a 1 -x {0.0 2.0 -1 ------- null}
r -t 0.231018 -s 1 -d 2 -p cbr -e 210 -c 1 -i 5 -a 1 -x {0.0 2.0 5 ------- null}
+ -t 0.23125 -s 0 -d 1 -p cbr -e 210 -c 1 -i 35 -a 1 -x {0.0 2.0 35 ------- null}
- -t 0.23125 -s 0 -d 1 -p cbr -e 210 -c 1 -i 35 -a 1 -x {0.0 2.0 35 ------- null}
h -t 0.23125 -s 0 -d 1 -p cbr -e 210 -c 1 -i 35 -a 1 -x {0.0 2.0 -1 ------- null}
r -t 0.233918 -s 0 -d 1 -p cbr -e 210 -c 1 -i 33 -a 1 -x {0.0 2.0 33 ------- null}
+ -t 0.233918 -s 1 -d 2 -p cbr -e 210 -c 1 -i 33 -a 1 -x {0.0 2.0 33 ------- null}
- -t 0.233918 -s 1 -d 2 -p cbr -e 210 -c 1 -i 33 -a 1 -x {0.0 2.0 33 ------- null}
h -t 0.233918 -s 1 -d 2 -p cbr -e 210 -c 1 -i 33 -a 1 -x {0.0 2.0 -1 ------- null}
r -t 0.234768 -s 1 -d 2 -p cbr -e 210 -c 1 -i 6 -a 1 -x {0.0 2.0 6 ------- null}
+ -t 0.235 -s 0 -d 1 -p cbr -e 210 -c 1 -i 36 -a 1 -x {0.0 2.0 36 ------- null}
- -t 0.235 -s 0 -d 1 -p cbr -e 210 -c 1 -i 36 -a 1 -x {0.0 2.0 36 ------- null}
h -t 0.235 -s 0 -d 1 -p cbr -e 210 -c 1 -i 36 -a 1 -x {0.0 2.0 -1 ------- null}
r -t 0.237668 -s 0 -d 1 -p cbr -e 210 -c 1 -i 34 -a 1 -x {0.0 2.0 34 ------- null}
+ -t 0.237668 -s 1 -d 2 -p cbr -e 210 -c 1 -i 34 -a 1 -x {0.0 2.0 34 ------- null}
- -t 0.237668 -s 1 -d 2 -p cbr -e 210 -c 1 -i 34 -a 1 -x {0.0 2.0 34 ------- null}
h -t 0.237668 -s 1 -d 2 -p cbr -e 210 -c 1 -i 34 -a 1 -x {0.0 2.0 -1 ------- null}
r -t 0.238518 -s 1 -d 2 -p cbr -e 210 -c 1 -i 7 -a 1 -x {0.0 2.0 7 ------- null}
+ -t 0.23875 -s 0 -d 1 -p cbr -e 210 -c 1 -i 37 -a 1 -x {0.0 2.0 37 ------- null}
- -t 0.23875 -s 0 -d 1 -p cbr -e 210 -c 1 -i 37 -a 1 -x {0.0 2.0 37 ------- null}
h -t 0.23875 -s 0 -d 1 -p cbr -e 210 -c 1 -i 37 -a 1 -x {0.0 2.0 -1 ------- null}
r -t 0.241418 -s 0 -d 1 -p cbr -e 210 -c 1 -i 35 -a 1 -x {0.0 2.0 35 ------- null}
+ -t 0.241418 -s 1 -d 2 -p cbr -e 210 -c 1 -i 35 -a 1 -x {0.0 2.0 35 ------- null}
- -t 0.241418 -s 1 -d 2 -p cbr -e 210 -c 1 -i 35 -a 1 -x {0.0 2.0 35 ------- null}
h -t 0.241418 -s 1 -d 2 -p cbr -e 210 -c 1 -i 35 -a 1 -x {0.0 2.0 -1 ------- null}
r -t 0.242268 -s 1 -d 2 -p cbr -e 210 -c 1 -i 8 -a 1 -x {0.0 2.0 8 ------- null}
+ -t 0.2425 -s 0 -d 1 -p cbr -e 210 -c 1 -i 38 -a 1 -x {0.0 2.0 38 ------- null}
- -t 0.2425 -s 0 -d 1 -p cbr -e 210 -c 1 -i 38 -a 1 -x {0.0 2.0 38 ------- null}
h -t 0.2425 -s 0 -d 1 -p cbr -e 210 -c 1 -i 38 -a 1 -x {0.0 2.0 -1 ------- null}
r -t 0.245168 -s 0 -d 1 -p cbr -e 210 -c 1 -i 36 -a 1 -x {0.0 2.0 36 ------- null}
+ -t 0.245168 -s 1 -d 2 -p cbr -e 210 -c 1 -i 36 -a 1 -x {0.0 2.0 36 ------- null}
- -t 0.245168 -s 1 -d 2 -p cbr -e 210 -c 1 -i 36 -a 1 -x {0.0 2.0 36 ------- null}
h -t 0.245168 -s 1 -d 2 -p cbr -e 210 -c 1 -i 36 -a 1 -x {0.0 2.0 -1 ------- null}
r -t 0.246018 -s 1 -d 2 -p cbr -e 210 -c 1 -i 9 -a 1 -x {0.0 2.0 9 ------- null}
+ -t 0.24625 -s 0 -d 1 -p cbr -e 210 -c 1 -i 39 -a 1 -x {0.0 2.0 39 ------- null}
- -t 0.24625 -s 0 -d 1 -p cbr -e 210 -c 1 -i 39 -a 1 -x {0.0 2.0 39 ------- null}
h -t 0.24625 -s 0 -d 1 -p cbr -e 210 -c 1 -i 39 -a 1 -x {0.0 2.0 -1 ------- null}
r -t 0.248918 -s 0 -d 1 -p cbr -e 210 -c 1 -i 37 -a 1 -x {0.0 2.0 37 ------- null}
+ -t 0.248918 -s 1 -d 2 -p cbr -e 210 -c 1 -i 37 -a 1 -x {0.0 2.0 37 ------- null}
- -t 0.248918 -s 1 -d 2 -p cbr -e 210 -c 1 -i 37 -a 1 -x {0.0 2.0 37 ------- null}
h -t 0.248918 -s 1 -d 2 -p cbr -e 210 -c 1 -i 37 -a 1 -x {0.0 2.0 -1 ------- null}
r -t 0.249768 -s 1 -d 2 -p cbr -e 210 -c 1 -i 10 -a 1 -x {0.0 2.0 10 ------- null}
+ -t 0.25 -s 0 -d 1 -p cbr -e 210 -c 1 -i 40 -a 1 -x {0.0 2.0 40 ------- null}
- -t 0.25 -s 0 -d 1 -p cbr -e 210 -c 1 -i 40 -a 1 -x {0.0 2.0 40 ------- null}
h -t 0.25 -s 0 -d 1 -p cbr -e 210 -c 1 -i 40 -a 1 -x {0.0 2.0 -1 ------- null}
r -t 0.252668 -s 0 -d 1 -p cbr -e 210 -c 1 -i 38 -a 1 -x {0.0 2.0 38 ------- null}
+ -t 0.252668 -s 1 -d 2 -p cbr -e 210 -c 1 -i 38 -a 1 -x {0.0 2.0 38 ------- null}
- -t 0.252668 -s 1 -d 2 -p cbr -e 210 -c 1 -i 38 -a 1 -x {0.0 2.0 38 ------- null}
h -t 0.252668 -s 1 -d 2 -p cbr -e 210 -c 1 -i 38 -a 1 -x {0.0 2.0 -1 ------- null}
r -t 0.253518 -s 1 -d 2 -p cbr -e 210 -c 1 -i 11 -a 1 -x {0.0 2.0 11 ------- null}
+ -t 0.25375 -s 0 -d 1 -p cbr -e 210 -c 1 -i 41 -a 1 -x {0.0 2.0 41 ------- null}
- -t 0.25375 -s 0 -d 1 -p cbr -e 210 -c 1 -i 41 -a 1 -x {0.0 2.0 41 ------- null}
h -t 0.25375 -s 0 -d 1 -p cbr -e 210 -c 1 -i 41 -a 1 -x {0.0 2.0 -1 ------- null}
r -t 0.256418 -s 0 -d 1 -p cbr -e 210 -c 1 -i 39 -a 1 -x {0.0 2.0 39 ------- null}
+ -t 0.256418 -s 1 -d 2 -p cbr -e 210 -c 1 -i 39 -a 1 -x {0.0 2.0 39 ------- null}
- -t 0.256418 -s 1 -d 2 -p cbr -e 210 -c 1 -i 39 -a 1 -x {0.0 2.0 39 ------- null}
h -t 0.256418 -s 1 -d 2 -p cbr -e 210 -c 1 -i 39 -a 1 -x {0.0 2.0 -1 ------- null}
r -t 0.257268 -s 1 -d 2 -p cbr -e 210 -c 1 -i 12 -a 1 -x {0.0 2.0 12 ------- null}
+ -t 0.2575 -s 0 -d 1 -p cbr -e 210 -c 1 -i 42 -a 1 -x {0.0 2.0 42 ------- null}
- -t 0.2575 -s 0 -d 1 -p cbr -e 210 -c 1 -i 42 -a 1 -x {0.0 2.0 42 ------- null}
h -t 0.2575 -s 0 -d 1 -p cbr -e 210 -c 1 -i 42 -a 1 -x {0.0 2.0 -1 ------- null}
r -t 0.260168 -s 0 -d 1 -p cbr -e 210 -c 1 -i 40 -a 1 -x {0.0 2.0 40 ------- null}
+ -t 0.260168 -s 1 -d 2 -p cbr -e 210 -c 1 -i 40 -a 1 -x {0.0 2.0 40 ------- null}
- -t 0.260168 -s 1 -d 2 -p cbr -e 210 -c 1 -i 40 -a 1 -x {0.0 2.0 40 ------- null}
h -t 0.260168 -s 1 -d 2 -p cbr -e 210 -c 1 -i 40 -a 1 -x {0.0 2.0 -1 ------- null}
r -t 0.261018 -s 1 -d 2 -p cbr -e 210 -c 1 -i 13 -a 1 -x {0.0 2.0 13 ------- null}
+ -t 0.26125 -s 0 -d 1 -p cbr -e 210 -c 1 -i 43 -a 1 -x {0.0 2.0 43 ------- null}
- -t 0.26125 -s 0 -d 1 -p cbr -e 210 -c 1 -i 43 -a 1 -x {0.0 2.0 43 ------- null}
h -t 0.26125 -s 0 -d 1 -p cbr -e 210 -c 1 -i 43 -a 1 -x {0.0 2.0 -1 ------- null}
r -t 0.263918 -s 0 -d 1 -p cbr -e 210 -c 1 -i 41 -a 1 -x {0.0 2.0 41 ------- null}
+ -t 0.263918 -s 1 -d 2 -p cbr -e 210 -c 1 -i 41 -a 1 -x {0.0 2.0 41 ------- null}
- -t 0.263918 -s 1 -d 2 -p cbr -e 210 -c 1 -i 41 -a 1 -x {0.0 2.0 41 ------- null}
h -t 0.263918 -s 1 -d 2 -p cbr -e 210 -c 1 -i 41 -a 1 -x {0.0 2.0 -1 ------- null}
r -t 0.264768 -s 1 -d 2 -p cbr -e 210 -c 1 -i 14 -a 1 -x {0.0 2.0 14 ------- null}
+ -t 0.265 -s 0 -d 1 -p cbr -e 210 -c 1 -i 44 -a 1 -x {0.0 2.0 44 ------- null}
- -t 0.265 -s 0 -d 1 -p cbr -e 210 -c 1 -i 44 -a 1 -x {0.0 2.0 44 ------- null}
h -t 0.265 -s 0 -d 1 -p cbr -e 210 -c 1 -i 44 -a 1 -x {0.0 2.0 -1 ------- null}
r -t 0.267668 -s 0 -d 1 -p cbr -e 210 -c 1 -i 42 -a 1 -x {0.0 2.0 42 ------- null}
+ -t 0.267668 -s 1 -d 2 -p cbr -e 210 -c 1 -i 42 -a 1 -x {0.0 2.0 42 ------- null}
- -t 0.267668 -s 1 -d 2 -p cbr -e 210 -c 1 -i 42 -a 1 -x {0.0 2.0 42 ------- null}
h -t 0.267668 -s 1 -d 2 -p cbr -e 210 -c 1 -i 42 -a 1 -x {0.0 2.0 -1 ------- null}
r -t 0.268518 -s 1 -d 2 -p cbr -e 210 -c 1 -i 15 -a 1 -x {0.0 2.0 15 ------- null}
+ -t 0.26875 -s 0 -d 1 -p cbr -e 210 -c 1 -i 45 -a 1 -x {0.0 2.0 45 ------- null}
- -t 0.26875 -s 0 -d 1 -p cbr -e 210 -c 1 -i 45 -a 1 -x {0.0 2.0 45 ------- null}
h -t 0.26875 -s 0 -d 1 -p cbr -e 210 -c 1 -i 45 -a 1 -x {0.0 2.0 -1 ------- null}
r -t 0.271418 -s 0 -d 1 -p cbr -e 210 -c 1 -i 43 -a 1 -x {0.0 2.0 43 ------- null}
+ -t 0.271418 -s 1 -d 2 -p cbr -e 210 -c 1 -i 43 -a 1 -x {0.0 2.0 43 ------- null}
- -t 0.271418 -s 1 -d 2 -p cbr -e 210 -c 1 -i 43 -a 1 -x {0.0 2.0 43 ------- null}
h -t 0.271418 -s 1 -d 2 -p cbr -e 210 -c 1 -i 43 -a 1 -x {0.0 2.0 -1 ------- null}
r -t 0.272268 -s 1 -d 2 -p cbr -e 210 -c 1 -i 16 -a 1 -x {0.0 2.0 16 ------- null}
+ -t 0.2725 -s 0 -d 1 -p cbr -e 210 -c 1 -i 46 -a 1 -x {0.0 2.0 46 ------- null}
- -t 0.2725 -s 0 -d 1 -p cbr -e 210 -c 1 -i 46 -a 1 -x {0.0 2.0 46 ------- null}
h -t 0.2725 -s 0 -d 1 -p cbr -e 210 -c 1 -i 46 -a 1 -x {0.0 2.0 -1 ------- null}
r -t 0.275168 -s 0 -d 1 -p cbr -e 210 -c 1 -i 44 -a 1 -x {0.0 2.0 44 ------- null}
+ -t 0.275168 -s 1 -d 2 -p cbr -e 210 -c 1 -i 44 -a 1 -x {0.0 2.0 44 ------- null}
- -t 0.275168 -s 1 -d 2 -p cbr -e 210 -c 1 -i 44 -a 1 -x {0.0 2.0 44 ------- null}
h -t 0.275168 -s 1 -d 2 -p cbr -e 210 -c 1 -i 44 -a 1 -x {0.0 2.0 -1 ------- null}
r -t 0.276018 -s 1 -d 2 -p cbr -e 210 -c 1 -i 17 -a 1 -x {0.0 2.0 17 ------- null}
+ -t 0.27625 -s 0 -d 1 -p cbr -e 210 -c 1 -i 47 -a 1 -x {0.0 2.0 47 ------- null}
- -t 0.27625 -s 0 -d 1 -p cbr -e 210 -c 1 -i 47 -a 1 -x {0.0 2.0 47 ------- null}
h -t 0.27625 -s 0 -d 1 -p cbr -e 210 -c 1 -i 47 -a 1 -x {0.0 2.0 -1 ------- null}
r -t 0.278918 -s 0 -d 1 -p cbr -e 210 -c 1 -i 45 -a 1 -x {0.0 2.0 45 ------- null}
+ -t 0.278918 -s 1 -d 2 -p cbr -e 210 -c 1 -i 45 -a 1 -x {0.0 2.0 45 ------- null}
- -t 0.278918 -s 1 -d 2 -p cbr -e 210 -c 1 -i 45 -a 1 -x {0.0 2.0 45 ------- null}
h -t 0.278918 -s 1 -d 2 -p cbr -e 210 -c 1 -i 45 -a 1 -x {0.0 2.0 -1 ------- null}
r -t 0.279768 -s 1 -d 2 -p cbr -e 210 -c 1 -i 18 -a 1 -x {0.0 2.0 18 ------- null}
+ -t 0.28 -s 0 -d 1 -p cbr -e 210 -c 1 -i 48 -a 1 -x {0.0 2.0 48 ------- null}
- -t 0.28 -s 0 -d 1 -p cbr -e 210 -c 1 -i 48 -a 1 -x {0.0 2.0 48 ------- null}
h -t 0.28 -s 0 -d 1 -p cbr -e 210 -c 1 -i 48 -a 1 -x {0.0 2.0 -1 ------- null}
r -t 0.282668 -s 0 -d 1 -p cbr -e 210 -c 1 -i 46 -a 1 -x {0.0 2.0 46 ------- null}
+ -t 0.282668 -s 1 -d 2 -p cbr -e 210 -c 1 -i 46 -a 1 -x {0.0 2.0 46 ------- null}
- -t 0.282668 -s 1 -d 2 -p cbr -e 210 -c 1 -i 46 -a 1 -x {0.0 2.0 46 ------- null}
h -t 0.282668 -s 1 -d 2 -p cbr -e 210 -c 1 -i 46 -a 1 -x {0.0 2.0 -1 ------- null}
r -t 0.283518 -s 1 -d 2 -p cbr -e 210 -c 1 -i 19 -a 1 -x {0.0 2.0 19 ------- null}
+ -t 0.28375 -s 0 -d 1 -p cbr -e 210 -c 1 -i 49 -a 1 -x {0.0 2.0 49 ------- null}
- -t 0.28375 -s 0 -d 1 -p cbr -e 210 -c 1 -i 49 -a 1 -x {0.0 2.0 49 ------- null}
h -t 0.28375 -s 0 -d 1 -p cbr -e 210 -c 1 -i 49 -a 1 -x {0.0 2.0 -1 ------- null}
r -t 0.286418 -s 0 -d 1 -p cbr -e 210 -c 1 -i 47 -a 1 -x {0.0 2.0 47 ------- null}
+ -t 0.286418 -s 1 -d 2 -p cbr -e 210 -c 1 -i 47 -a 1 -x {0.0 2.0 47 ------- null}
- -t 0.286418 -s 1 -d 2 -p cbr -e 210 -c 1 -i 47 -a 1 -x {0.0 2.0 47 ------- null}